Program Version,EnergyPlus-Windows-64 8.0.0.008, YMD=2013.06.10 17:07
1,5,Environment Title[],Latitude[deg],Longitude[deg],Time Zone[],Elevation[m]
2,6,Day of Simulation[],Month[],Day of Month[],DST Indicator[1=yes 0=no],Hour[],StartMinute[],EndMinute[],DayType
3,3,Cumulative Day of Simulation[],Month[],Day of Month[],DST Indicator[1=yes 0=no],DayType  ! When Daily Report Variables Requested
4,2,Cumulative Days of Simulation[],Month[]  ! When Monthly Report Variables Requested
5,1,Cumulative Days of Simulation[] ! When Run Period Report Variables Requested
6,1,Environment,Site Outdoor Air Drybulb Temperature [C] !TimeStep
7,1,Environment,Site Outdoor Air Humidity Ratio [kgWater/kgDryAir] !Hourly
8,1,Environment,Site Outdoor Air Relative Humidity [%] !Hourly
2143,1,BASEMENT,Zone Mean Air Temperature [C] !Hourly
2144,1,CORRIDOR_FLR_1,Zone Mean Air Temperature [C] !Hourly
2145,1,CORRIDOR_FLR_2,Zone Mean Air Temperature [C] !Hourly
2146,1,CORRIDOR_FLR_5,Zone Mean Air Temperature [C] !Hourly
2147,1,CORRIDOR_NW_FLR_3,Zone Mean Air Temperature [C] !Hourly
2148,1,CORRIDOR_NW_FLR_4,Zone Mean Air Temperature [C] !Hourly
2149,1,CORRIDOR_SE_FLR_3,Zone Mean Air Temperature [C] !Hourly
2150,1,CORRIDOR_SE_FLR_4,Zone Mean Air Temperature [C] !Hourly
2151,1,DINING_FLR_5,Zone Mean Air Temperature [C] !Hourly
2152,1,ER_EXAM1_MULT4_FLR_1,Zone Mean Air Temperature [C] !Hourly
2153,1,ER_EXAM3_MULT4_FLR_1,Zone Mean Air Temperature [C] !Hourly
2154,1,ER_NURSESTN_LOBBY_FLR_1,Zone Mean Air Temperature [C] !Hourly
2155,1,ER_TRAUMA1_FLR_1,Zone Mean Air Temperature [C] !Hourly
2156,1,ER_TRAUMA2_FLR_1,Zone Mean Air Temperature [C] !Hourly
2157,1,ER_TRIAGE_MULT4_FLR_1,Zone Mean Air Temperature [C] !Hourly
2158,1,ICU_FLR_2,Zone Mean Air Temperature [C] !Hourly
2159,1,ICU_NURSESTN_LOBBY_FLR_2,Zone Mean Air Temperature [C] !Hourly
2160,1,IC_PATROOM1_MULT5_FLR_2,Zone Mean Air Temperature [C] !Hourly
2161,1,IC_PATROOM2_FLR_2,Zone Mean Air Temperature [C] !Hourly
2162,1,IC_PATROOM3_MULT6_FLR_2,Zone Mean Air Temperature [C] !Hourly
2163,1,KITCHEN_FLR_5,Zone Mean Air Temperature [C] !Hourly
2164,1,LAB_FLR_3,Zone Mean Air Temperature [C] !Hourly
2165,1,LAB_FLR_4,Zone Mean Air Temperature [C] !Hourly
2166,1,LOBBY_RECORDS_FLR_1,Zone Mean Air Temperature [C] !Hourly
2167,1,NURSESTN_LOBBY_FLR_3,Zone Mean Air Temperature [C] !Hourly
2168,1,NURSESTN_LOBBY_FLR_4,Zone Mean Air Temperature [C] !Hourly
2169,1,NURSESTN_LOBBY_FLR_5,Zone Mean Air Temperature [C] !Hourly
2170,1,OR1_FLR_2,Zone Mean Air Temperature [C] !Hourly
2171,1,OR2_MULT5_FLR_2,Zone Mean Air Temperature [C] !Hourly
2172,1,OR3_FLR_2,Zone Mean Air Temperature [C] !Hourly
2173,1,OR4_FLR_2,Zone Mean Air Temperature [C] !Hourly
2174,1,OR_NURSESTN_LOBBY_FLR_2,Zone Mean Air Temperature [C] !Hourly
2175,1,OFFICE1_FLR_5,Zone Mean Air Temperature [C] !Hourly
2176,1,OFFICE1_MULT4_FLR_1,Zone Mean Air Temperature [C] !Hourly
2177,1,OFFICE2_MULT5_FLR_5,Zone Mean Air Temperature [C] !Hourly
2178,1,OFFICE3_FLR_5,Zone Mean Air Temperature [C] !Hourly
2179,1,OFFICE4_MULT6_FLR_5,Zone Mean Air Temperature [C] !Hourly
2180,1,PATROOM1_MULT10_FLR_3,Zone Mean Air Temperature [C] !Hourly
2181,1,PATROOM1_MULT10_FLR_4,Zone Mean Air Temperature [C] !Hourly
2182,1,PATROOM2_FLR_3,Zone Mean Air Temperature [C] !Hourly
2183,1,PATROOM2_FLR_4,Zone Mean Air Temperature [C] !Hourly
2184,1,PATROOM3_MULT10_FLR_3,Zone Mean Air Temperature [C] !Hourly
2185,1,PATROOM3_MULT10_FLR_4,Zone Mean Air Temperature [C] !Hourly
2186,1,PATROOM4_FLR_3,Zone Mean Air Temperature [C] !Hourly
2187,1,PATROOM4_FLR_4,Zone Mean Air Temperature [C] !Hourly
2188,1,PATROOM5_MULT10_FLR_3,Zone Mean Air Temperature [C] !Hourly
2189,1,PATROOM5_MULT10_FLR_4,Zone Mean Air Temperature [C] !Hourly
2190,1,PATROOM6_FLR_3,Zone Mean Air Temperature [C] !Hourly
2191,1,PATROOM6_FLR_4,Zone Mean Air Temperature [C] !Hourly
2192,1,PATROOM7_MULT10_FLR_3,Zone Mean Air Temperature [C] !Hourly
2193,1,PATROOM7_MULT10_FLR_4,Zone Mean Air Temperature [C] !Hourly
2194,1,PATROOM8_FLR_3,Zone Mean Air Temperature [C] !Hourly
2195,1,PATROOM8_FLR_4,Zone Mean Air Temperature [C] !Hourly
2196,1,PHYSTHERAPY_FLR_3,Zone Mean Air Temperature [C] !Hourly
2197,1,RADIOLOGY_FLR_4,Zone Mean Air Temperature [C] !Hourly
4027,1,COOLSYS1,Plant System Cycle On Off Status [] !Hourly
4028,1,HEATSYS1,Plant System Cycle On Off Status [] !Hourly
4029,1,SWHSYS1,Plant System Cycle On Off Status [] !Hourly
4030,1,TOWERWATERSYS,Plant System Cycle On Off Status [] !Hourly
4031,1,COOLSYS1,Plant Supply Side Cooling Demand Rate [W] !Hourly
4032,1,COOLSYS1,Plant Supply Side Heating Demand Rate [W] !Hourly
4033,1,COOLSYS1,Plant Supply Side Inlet Mass Flow Rate [kg/s] !Hourly
4034,1,COOLSYS1,Plant Supply Side Inlet Temperature [C] !Hourly
4035,1,COOLSYS1,Plant Supply Side Outlet Temperature [C] !Hourly
4036,1,COOLSYS1,Plant Supply Side Unmet Demand Rate [W] !Hourly
4037,1,HEATSYS1,Plant Supply Side Cooling Demand Rate [W] !Hourly
4038,1,HEATSYS1,Plant Supply Side Heating Demand Rate [W] !Hourly
4039,1,HEATSYS1,Plant Supply Side Inlet Mass Flow Rate [kg/s] !Hourly
4040,1,HEATSYS1,Plant Supply Side Inlet Temperature [C] !Hourly
4041,1,HEATSYS1,Plant Supply Side Outlet Temperature [C] !Hourly
4042,1,HEATSYS1,Plant Supply Side Unmet Demand Rate [W] !Hourly
4043,1,SWHSYS1,Plant Supply Side Cooling Demand Rate [W] !Hourly
4044,1,SWHSYS1,Plant Supply Side Heating Demand Rate [W] !Hourly
4045,1,SWHSYS1,Plant Supply Side Inlet Mass Flow Rate [kg/s] !Hourly
4046,1,SWHSYS1,Plant Supply Side Inlet Temperature [C] !Hourly
4047,1,SWHSYS1,Plant Supply Side Outlet Temperature [C] !Hourly
4048,1,SWHSYS1,Plant Supply Side Unmet Demand Rate [W] !Hourly
4049,1,TOWERWATERSYS,Plant Supply Side Cooling Demand Rate [W] !Hourly
4050,1,TOWERWATERSYS,Plant Supply Side Heating Demand Rate [W] !Hourly
4051,1,TOWERWATERSYS,Plant Supply Side Inlet Mass Flow Rate [kg/s] !Hourly
4052,1,TOWERWATERSYS,Plant Supply Side Inlet Temperature [C] !Hourly
4053,1,TOWERWATERSYS,Plant Supply Side Outlet Temperature [C] !Hourly
4054,1,TOWERWATERSYS,Plant Supply Side Unmet Demand Rate [W] !Hourly
4566,1,CAV_1,Air System Simulation Cycle On Off Status [] !Hourly
4567,1,CAV_2,Air System Simulation Cycle On Off Status [] !Hourly
4568,1,VAV_1,Air System Simulation Cycle On Off Status [] !Hourly
4569,1,VAV_2,Air System Simulation Cycle On Off Status [] !Hourly
4612,1,CAV_1,Air System Outdoor Air Economizer Status [] !Hourly
4613,1,CAV_1,Air System Outdoor Air Flow Fraction [] !Hourly
4614,1,CAV_2,Air System Outdoor Air Economizer Status [] !Hourly
4615,1,CAV_2,Air System Outdoor Air Flow Fraction [] !Hourly
4616,1,VAV_1,Air System Outdoor Air Economizer Status [] !Hourly
4617,1,VAV_1,Air System Outdoor Air Flow Fraction [] !Hourly
4618,1,VAV_2,Air System Outdoor Air Economizer Status [] !Hourly
4619,1,VAV_2,Air System Outdoor Air Flow Fraction [] !Hourly
4676,1,COOLSYS1 CHILLER,Chiller Part Load Ratio [] !Hourly
4677,1,COOLSYS1 CHILLER,Chiller Electric Power [W] !TimeStep
4678,1,COOLSYS1 CHILLER,Chiller Electric Energy [J] !Hourly
4711,1,COOLSYS1 CHILLER,Chiller COP [W/W] !Hourly
4723,1,HEATSYS1 BOILER,Boiler Gas Energy [J] !Hourly
4744,1,HEATSYS1 BOILER,Boiler Inlet Temperature [C] !Hourly
4745,1,HEATSYS1 BOILER,Boiler Outlet Temperature [C] !Hourly
4767,1,HEATSYS1 BOILER,Boiler Part Load Ratio [] !Hourly
11,1,Electricity:Facility [J] !Hourly
4527,1,Fans:Electricity [J] !Hourly
4680,1,Cooling:Electricity [J] !Hourly
4748,1,Heating:Electricity [J] !Hourly
41,1,InteriorLights:Electricity [J] !Hourly
1206,1,InteriorEquipment:Electricity [J] !Hourly
1775,1,Gas:Facility [J] !Hourly
4725,1,Heating:Gas [J] !Hourly
1805,1,InteriorEquipment:Gas [J] !Hourly
2050,1,Water Heater:WaterSystems:Gas [J] !Hourly
13,9,Electricity:Facility [J] !Monthly  [Value,Min,Day,Hour,Minute,Max,Day,Hour,Minute]
1777,9,Gas:Facility [J] !Monthly  [Value,Min,Day,Hour,Minute,Max,Day,Hour,Minute]
4840,9,CO2:Facility [kg] !Monthly  [Value,Min,Day,Hour,Minute,Max,Day,Hour,Minute]
4861,9,CO:Facility [kg] !Monthly  [Value,Min,Day,Hour,Minute,Max,Day,Hour,Minute]
4882,9,CH4:Facility [kg] !Monthly  [Value,Min,Day,Hour,Minute,Max,Day,Hour,Minute]
4903,9,NOx:Facility [kg] !Monthly  [Value,Min,Day,Hour,Minute,Max,Day,Hour,Minute]
4924,9,N2O:Facility [kg] !Monthly  [Value,Min,Day,Hour,Minute,Max,Day,Hour,Minute]
4945,9,SO2:Facility [kg] !Monthly  [Value,Min,Day,Hour,Minute,Max,Day,Hour,Minute]
4966,9,PM:Facility [kg] !Monthly  [Value,Min,Day,Hour,Minute,Max,Day,Hour,Minute]
4987,9,PM10:Facility [kg] !Monthly  [Value,Min,Day,Hour,Minute,Max,Day,Hour,Minute]
5008,9,PM2.5:Facility [kg] !Monthly  [Value,Min,Day,Hour,Minute,Max,Day,Hour,Minute]
5029,9,NH3:Facility [kg] !Monthly  [Value,Min,Day,Hour,Minute,Max,Day,Hour,Minute]
5050,9,NMVOC:Facility [kg] !Monthly  [Value,Min,Day,Hour,Minute,Max,Day,Hour,Minute]
5071,9,Hg:Facility [kg] !Monthly  [Value,Min,Day,Hour,Minute,Max,Day,Hour,Minute]
5092,9,Pb:Facility [kg] !Monthly  [Value,Min,Day,Hour,Minute,Max,Day,Hour,Minute]
5113,9,WaterEnvironmentalFactors:Facility [L] !Monthly  [Value,Min,Day,Hour,Minute,Max,Day,Hour,Minute]
5134,9,Nuclear High:Facility [kg] !Monthly  [Value,Min,Day,Hour,Minute,Max,Day,Hour,Minute]
5155,9,Nuclear Low:Facility [m3] !Monthly  [Value,Min,Day,Hour,Minute,Max,Day,Hour,Minute]
5385,9,Carbon Equivalent:Facility [kg] !Monthly  [Value,Min,Day,Hour,Minute,Max,Day,Hour,Minute]
5404,1,CAV_1,Air System Total Heating Energy [J] !Hourly
5405,1,CAV_1,Air System Total Cooling Energy [J] !Hourly
5406,1,CAV_1,Air System Fan Electric Energy [J] !Hourly
5407,1,CAV_1,Air System Heating Coil Hot Water Energy [J] !Hourly
5408,1,CAV_2,Air System Total Heating Energy [J] !Hourly
5409,1,CAV_2,Air System Total Cooling Energy [J] !Hourly
5410,1,CAV_2,Air System Fan Electric Energy [J] !Hourly
5411,1,CAV_2,Air System Heating Coil Hot Water Energy [J] !Hourly
5412,1,VAV_1,Air System Total Heating Energy [J] !Hourly
5413,1,VAV_1,Air System Total Cooling Energy [J] !Hourly
5414,1,VAV_1,Air System Fan Electric Energy [J] !Hourly
5415,1,VAV_1,Air System Heating Coil Hot Water Energy [J] !Hourly
5416,1,VAV_2,Air System Total Heating Energy [J] !Hourly
5417,1,VAV_2,Air System Total Cooling Energy [J] !Hourly
5418,1,VAV_2,Air System Fan Electric Energy [J] !Hourly
5419,1,VAV_2,Air System Heating Coil Hot Water Energy [J] !Hourly
End of Data Dictionary
1,Chicago Ohare Intl Ap IL USA TMY3 WMO#=725300,  41.98, -87.92,  -6.00, 201.00
2,1, 6, 1, 1, 1, 0.00,15.00,Monday         
6,14.5
4677,129587.368565082
2,1, 6, 1, 1, 1,15.00,30.00,Monday         
6,15.7
4677,133733.917042089
2,1, 6, 1, 1, 1,30.00,45.00,Monday         
6,16.9
4677,147611.223802706
2,1, 6, 1, 1, 1,45.00,60.00,Monday         
6,18.1
4677,165714.645093687
2,1, 6, 1, 1, 1, 0.00,60.00,Monday         
7,9.307156053464183E-003
8,78.375
2143,21.7673710721557
2144,22.1135471261868
2145,20.244859914881
2146,21.5544891844691
2147,20.4521460025199
2148,20.4930689576557
2149,20.5142667789465
2150,20.5579123455897
2151,21.0726399921773
2152,21.0949120812553
2153,21.096025680449
2154,22.2022085741071
2155,21.0931216298591
2156,21.0920145511592
2157,21.0993447051833
2158,21.0888733184073
2159,22.5570215126518
2160,21.0972159120635
2161,21.0947147955332
2162,21.0937501540327
2163,18.2746642456944
2164,18.2906700818436
2165,18.293366222138
2166,22.1807342322447
2167,21.7026880190293
2168,21.681878533331
2169,21.7926341929544
2170,18.291147533723
2171,18.2805394107578
2172,18.282262278159
2173,18.2831462513922
2174,22.2522774443799
2175,20.2256582573452
2176,21.1704605749722
2177,20.8848595357532
2178,20.1472261920074
2179,20.6767283911317
2180,21.1002061793907
2181,21.0902101439164
2182,21.101003598617
2183,21.0917235431558
2184,21.0925387267724
2185,21.1014122787891
2186,21.0946474694904
2187,21.0988731786658
2188,21.0962344766782
2189,21.095448499904
2190,21.0939143640569
2191,21.0973336124494
2192,21.097940996557
2193,21.0984568815935
2194,21.1003110781401
2195,21.0916319823999
2196,18.9579477797782
2197,18.2971627205364
4031,757094.111543007
4032,0.0
4033,50.2870725750717
4034,10.3291915555085
4035,6.7
4036,0.0
4037,0.0
4038,320103.68760751
4039,1.61882780542868
4040,34.8948037855078
4041,82.2
4042,0.0
4043,0.0
4044,11725.0836305731
4045,6.202457320000336E-002
4046,14.8314947345885
4047,59.1184094533987
4048,228.785779963572
4049,765316.877906254
4050,0.0
4051,132.793552539482
4052,15.3975931516673
4053,14.8808277041685
4054,-478195.473534153
4613,0.33
4615,0.33
4617,1.
4619,1.
4676,0.263316104449345
4678,518982439.053207
4711,5.39755738199575
4723,1466123760.0344
4744,34.8948037855078
4745,82.2
4767,9.407978172830536E-002
5404,644807869.578405
5405,814751596.604885
5406,139497088.380784
5407,505310781.197596
5408,381266515.084851
5409,523138228.661214
5410,108920138.255546
5411,272346376.829292
5412,200097442.946599
5413,482082763.37805
5414,37488176.1406258
5415,162609266.805975
5416,248845487.724451
5417,800525232.551673
5418,61174185.2941134
5419,187671302.430337
4027,0.0
4028,0.0
4029,0.0
4030,0.0
4566,0.0
4567,0.0
4568,0.0
4569,0.0
4612,0.0
4614,0.0
4616,1.
4618,1.
11,1923236904.2463
41,165934921.037292
1206,407926009.778861
1775,1517903027.11028
1805,20392811.859456
2050,31386455.2164298
4527,347079588.080072
4680,518982439.053207
4725,1466123760.0344
4748,0.0
2,1, 6, 1, 1, 2, 0.00,15.00,Monday         
6,18.125
4677,175690.588690746
2,1, 6, 1, 1, 2,15.00,30.00,Monday         
6,18.15
4677,183141.786656337
2,1, 6, 1, 1, 2,30.00,45.00,Monday         
6,18.175
4677,188835.251363587
2,1, 6, 1, 1, 2,45.00,60.00,Monday         
6,18.2
4677,193300.343450693
2,1, 6, 1, 1, 2, 0.00,60.00,Monday         
7,1.143565551207561E-002
8,85.875
2143,21.7288886739672
2144,22.0656090572691
2145,20.1779666009305
2146,21.3140083373871
2147,20.3810061422236
2148,20.4219313053444
2149,20.4426315925187
2150,20.4862322024294
2151,20.8134284535042
2152,21.0966635359861
2153,21.0988113231598
2154,22.142055743049
2155,21.1029886394017
2156,21.105837340356
2157,21.1037474782587
2158,21.1010328159743
2159,22.4936512976273
2160,21.1013022375472
2161,21.1010366525052
2162,21.1038488151462
2163,17.9259730176004
2164,18.2910997816258
2165,18.2955452706946
2166,22.1156953079009
2167,21.6182159174793
2168,21.5974261411234
2169,21.535155624582
2170,18.2929679460361
2171,18.2922277033363
2172,18.2966676196249
2173,18.2931645212255
2174,22.2009577344792
2175,19.9770303301246
2176,21.1115586368012
2177,20.5942866088819
2178,19.9031986178848
2179,20.4740224454108
2180,21.0997975938162
2181,21.0998704871455
2182,21.1054503020839
2183,21.1019527062944
2184,21.1000103902908
2185,21.1017930802487
2186,21.0992505436566
2187,21.1022232675482
2188,21.1040696653726
2189,21.0977519271204
2190,21.0949714551565
2191,21.1054264616938
2192,21.1042623188783
2193,21.1050457771033
2194,21.1092209010973
2195,21.1050982986392
2196,18.8535206190633
2197,18.302853482836
4031,1078240.22355085
4032,0.0
4033,74.1452623428597
4034,10.1699725035091
4035,6.7
4036,0.0
4037,0.0
4038,314243.832308074
4039,1.59479084435395
4040,35.0602245146546
4041,82.2
4042,0.0
4043,0.0
4044,11729.992092774
4045,6.205053849525072E-002
4046,14.8314947336809
4047,59.0022684417524
4048,259.079799857144
4049,1830359.27968242
4050,0.0
4051,132.793552539482
4052,19.9025486543543
4053,18.5022816446032
4054,-1053158.53152676
4613,0.33
4615,0.33
4617,1.
4619,1.
4676,0.355073220470436
4678,666871173.145227
4711,5.82493141222412
4723,1439284728.12858
4744,35.0602245146546
4745,82.2
4767,9.235754631249118E-002
5404,645242752.287385
5405,987072195.106152
5406,139497088.380784
5407,505745663.906643
5408,360105542.80789
5409,625315145.185508
5410,108920138.255546
5411,251185404.552339
5412,201420481.363832
5413,832305791.743318
5414,37488176.1406258
5415,163932305.223198
5416,252434601.95803
5417,1383792009.20304
5418,61174185.2941134
5419,191260416.663913
4027,0.0
4028,0.0
4029,0.0
4030,0.0
4566,0.0
4567,0.0
4568,0.0
4569,0.0
4612,0.0
4614,0.0
4616,1.
4618,1.
11,2093334530.91125
41,165934921.037292
1206,407926009.778861
1775,1522377074.80877
1805,20392811.859456
2050,62699534.8207346
4527,347079588.080072
4680,666871173.145227
4725,1439284728.12858
4748,0.0
2,1, 6, 1, 1, 3, 0.00,15.00,Monday         
6,18.2
4677,195423.118984224
2,1, 6, 1, 1, 3,15.00,30.00,Monday         
6,18.2
4677,196382.812569995
2,1, 6, 1, 1, 3,30.00,45.00,Monday         
6,18.2
4677,196595.251076916
2,1, 6, 1, 1, 3,45.00,60.00,Monday         
6,18.2
4677,196304.17904637
2,1, 6, 1, 1, 3, 0.00,60.00,Monday         
7,1.136096029224084E-002
8,85.125
2143,21.6931689114715
2144,22.0133990398103
2145,20.1089966989638
2146,21.0962027167343
2147,20.3103311263572
2148,20.3515128716468
2149,20.371459696957
2150,20.415283580586
2151,20.5642121403301
2152,21.0996366323904
2153,21.0966597561259
2154,22.0750472408796
2155,21.100084490043
2156,21.1068032219293
2157,21.0979822385724
2158,21.0984435284301
2159,22.4333353429188
2160,21.10500167608
2161,21.1034542761754
2162,21.1027891843868
2163,17.6304754152922
2164,18.2919793841979
2165,18.296594599774
2166,22.0312618299194
2167,21.5367458563128
2168,21.5163028693398
2169,21.3062612372224
2170,18.3097030618913
2171,18.3082493760092
2172,18.3082546186171
2173,18.3026216872395
2174,22.1360806763571
2175,19.6985864454544
2176,21.0160102470066
2177,20.3071645850796
2178,19.6289054518406
2179,20.2549958460417
2180,21.1027197024117
2181,21.1002916143107
2182,21.1053509435435
2183,21.0996715286567
2184,21.1015007536072
2185,21.1031506342678
2186,21.1047674907167
2187,21.1010776096855
2188,21.0984965431887
2189,21.1033970231303
2190,21.1067038167702
2191,21.102427360752
2192,21.1033828053067
2193,21.1011511316522
2194,21.1032738222588
2195,21.0994991950443
2196,18.755446411462
2197,18.3020541708069
4031,1074353.4563802
4032,0.0
4033,73.799451942093
4034,10.1736853946896
4035,6.7
4036,0.0
4037,0.0
4038,317044.308909781
4039,1.61401534039064
4040,35.2065286992248
4041,82.2
4042,0.0
4043,0.0
4044,11726.4195061264
4045,6.203163985257869E-002
4046,14.8314947334478
4047,58.8757429751569
4048,291.852289908571
4049,2822117.0959693
4050,0.0
4051,132.793552539482
4052,21.6402775683782
4053,19.4430241336647
4054,-1602795.38751631
4613,0.33
4615,0.33
4617,1.
4619,1.
4676,0.353699827873082
4678,706234825.509754
4711,5.47660342349358
4723,1452111338.51808
4744,35.2065286992248
4745,82.2
4767,9.318061782845205E-002
5404,648698689.206293
5405,984516803.756989
5406,139497088.380784
5407,509201600.825539
5408,362451618.553835
5409,626270608.089967
5410,108920138.255546
5411,253531480.298272
5412,203654050.358255
5413,824789756.250778
5414,37488176.1406258
5415,166165874.217632
5416,256480524.554138
5417,1371265812.22858
5418,61174185.2941134
5419,195306339.260037
4027,0.0
4028,0.0
4029,0.0
4030,0.0
4566,0.0
4567,0.0
4568,0.0
4569,0.0
4612,0.0
4614,0.0
4616,1.
4618,1.
11,2132346857.85698
41,165934921.037292
1206,407926009.778861
1775,1535197948.38737
1805,20392811.859456
2050,62693798.0098373
4527,347079588.080072
4680,706234825.509754
4725,1452111338.51808
4748,0.0
2,1, 6, 1, 1, 4, 0.00,15.00,Monday         
6,18.225
4677,195847.216382232
2,1, 6, 1, 1, 4,15.00,30.00,Monday         
6,18.25
4677,195248.882800783
2,1, 6, 1, 1, 4,30.00,45.00,Monday         
6,18.275
4677,194570.218735621
2,1, 6, 1, 1, 4,45.00,60.00,Monday         
6,18.3
4677,193784.52051485
2,1, 6, 1, 1, 4, 0.00,60.00,Monday         
7,1.099015130274536E-002
8,82.125
2143,21.9586554180907
2144,22.0598866905925
2145,20.1292248689411
2146,21.0171108988777
2147,20.3365552615978
2148,20.3784094148772
2149,20.3972094694038
2150,20.4417118007319
2151,20.7099761671297
2152,21.1082424041472
2153,21.1077899108949
2154,22.3258812759656
2155,21.1072804767445
2156,21.1106038534153
2157,21.1057448503111
2158,21.0949183177544
2159,22.7799784289464
2160,21.1004765938272
2161,21.097567334225
2162,21.1061973009377
2163,17.5237221937617
2164,18.297165822233
2165,18.3019063864218
2166,22.095235894075
2167,21.7430071664411
2168,21.7221119381778
2169,21.4191165476894
2170,18.2964758491391
2171,18.2945792442805
2172,18.2940788338437
2173,18.3024085594391
2174,22.3409956532251
2175,19.6985125015237
2176,21.1139090189408
2177,20.3108533686452
2178,19.6350140556951
2179,20.2700440590988
2180,21.1051726230166
2181,21.1027602592987
2182,21.0998832809784
2183,21.0983931726137
2184,21.0988649591048
2185,21.0974449695719
2186,21.1056995635584
2187,21.1030561915367
2188,21.1051529303516
2189,21.1110086679702
2190,21.104623310172
2191,21.0999769213585
2192,21.101999573966
2193,21.102799923716
2194,21.1017050670585
2195,21.1021699625641
2196,18.9602348903291
2197,18.3025951532029
4031,1034590.87987305
4032,0.0
4033,71.407772046886
4034,10.1571768491888
4035,6.7
4036,0.0
4037,0.0
4038,304998.421424243
4039,1.55690691559433
4040,35.3339120675245
4041,82.2
4042,0.0
4043,0.0
4044,11725.5624563245
4045,6.202710614086931E-002
4046,14.8314947334002
4047,59.0916435769766
4048,235.753282353345
4049,3015150.36436868
4050,0.0
4051,132.793552539482
4052,21.7037943017861
4053,19.3674957232029
4054,-1718713.97577845
4613,0.33
4615,0.33
4617,1.
4619,1.
4676,0.34059182271973
4678,701505754.590137
4711,5.3092234166557
4723,1396939334.76752
4744,35.3339120675245
4745,82.2
4767,8.964028227707693E-002
5404,638426291.087181
5405,968356134.18803
5406,139497088.380784
5407,498929202.706383
5408,359896328.051587
5409,616965159.533867
5410,108920138.255546
5411,250976189.796052
5412,196416537.030738
5413,781787892.934317
5414,37488176.1406258
5415,158928360.890113
5416,237711588.540492
5417,1299605048.44623
5418,61174185.2941134
5419,176537403.246389
4027,0.0
4028,0.0
4029,0.0
4030,0.0
4566,0.0
4567,0.0
4568,0.0
4569,0.0
4612,0.0
4614,0.0
4616,1.
4618,1.
11,2451047360.31046
41,360542366.237066
1206,536289837.963264
1775,1448719474.98316
1805,20392811.859456
2050,31387328.3561846
4527,347079588.080072
4680,701505754.590137
4725,1396939334.76752
4748,0.0
2,1, 6, 1, 1, 5, 0.00,15.00,Monday         
6,18.175
4677,192329.676083309
2,1, 6, 1, 1, 5,15.00,30.00,Monday         
6,18.05
4677,191565.574072885
2,1, 6, 1, 1, 5,30.00,45.00,Monday         
6,17.925
4677,190172.493862239
2,1, 6, 1, 1, 5,45.00,60.00,Monday         
6,17.8
4677,188685.26946423
2,1, 6, 1, 1, 5, 0.00,60.00,Monday         
7,1.063775065424075E-002
8,81.
2143,21.9828733608948
2144,22.0588725809362
2145,21.0989306236192
2146,21.0995459729404
2147,21.0996888151327
2148,21.0994270515321
2149,21.0998309253891
2150,21.0992097931518
2151,21.1010741485247
2152,21.0962306410226
2153,21.0987704469961
2154,22.2001618433611
2155,21.1058903194366
2156,21.0991293764231
2157,21.1043285866548
2158,21.1006449298946
2159,22.2010063821034
2160,21.1084805598638
2161,21.1034448098835
2162,21.1024237583747
2163,19.0001971567314
2164,21.0890193091274
2165,21.0869612311887
2166,22.0778518849107
2167,21.7853804263596
2168,21.765866599855
2169,21.399263651747
2170,18.3068402605058
2171,18.3033199789047
2172,18.3051847598736
2173,18.3039337024233
2174,22.2001672479209
2175,21.0984321781549
2176,21.1021571615461
2177,21.0995750530501
2178,21.0989563663822
2179,21.1006629751933
2180,21.1048331468934
2181,21.0973280865733
2182,21.1009288375404
2183,21.103581363011
2184,21.0956604746811
2185,21.1029332675207
2186,21.1050827003737
2187,21.1037610224765
2188,21.1037413978197
2189,21.0998931679133
2190,21.1054553569214
2191,21.103392091207
2192,21.1031894884806
2193,21.102846176373
2194,21.1061002971964
2195,21.1030270574185
2196,21.0980568888577
2197,21.0966209317052
4031,991932.823479721
4032,0.0
4033,68.5195183121438
4034,10.1542413166955
4035,6.7
4036,0.0
4037,0.0
4038,402748.71335675
4039,2.05676642153825
4040,35.3519051669286
4041,82.2
4042,0.0
4043,0.0
4044,11731.7411264381
4045,6.205979071592688E-002
4046,14.8314947333543
4047,59.0149717366698
4048,255.832079141087
4049,3041476.63522158
4050,0.0
4051,132.793552539482
4052,21.3626643251051
4053,19.0332135049099
4054,-1748862.76062463
4613,0.33
4615,0.33
4617,1.
4619,1.
4676,0.326482746871093
4678,686477712.134397
4711,5.20145002140928
4723,1844650595.5271
4744,35.3519051669286
4745,82.2
4767,0.118369492482754
5404,638380230.951533
5405,944897049.399795
5406,139497088.380784
5407,498883142.570729
5408,364258318.130682
5409,603826894.741199
5410,108920138.255546
5411,255338179.875127
5412,264755973.441434
5413,762668015.96523
5414,41071620.6586002
5415,223684352.782828
5416,562107093.073619
5417,1203709523.01988
5418,61174185.2941134
5419,500932907.77949
4027,0.0
4028,0.0
4029,0.0
4030,0.0
4566,0.0
4567,0.0
4568,0.0
4569,0.0
4612,0.0
4614,0.0
4616,1.
4618,1.
11,2399163080.35083
41,360542366.237066
1206,539619837.963264
1775,1958340926.21067
1805,50982029.64864
2050,62708301.0349341
4527,350663032.598047
4680,686477712.134397
4725,1844650595.5271
4748,0.0
2,1, 6, 1, 1, 6, 0.00,15.00,Monday         
6,17.375
4677,185647.703505945
2,1, 6, 1, 1, 6,15.00,30.00,Monday         
6,16.95
4677,182531.797062671
2,1, 6, 1, 1, 6,30.00,45.00,Monday         
6,16.525
4677,178614.31446179
2,1, 6, 1, 1, 6,45.00,60.00,Monday         
6,16.1
4677,174428.695658921
2,1, 6, 1, 1, 6, 0.00,60.00,Monday         
7,9.816632225188832E-003
8,81.
2143,22.199367860988
2144,22.1800439433808
2145,21.0999551646948
2146,21.0998104666865
2147,21.0995731983208
2148,21.0998632072393
2149,21.100033308196
2150,21.0996731275669
2151,21.4716067215197
2152,21.0946338870527
2153,21.1019091061386
2154,22.2003299845068
2155,21.1106321455625
2156,21.1064008220795
2157,21.1079248323786
2158,21.1012921859449
2159,22.200333853801
2160,21.1025206719648
2161,21.1070704166325
2162,21.0976648441724
2163,19.007413211043
2164,21.1010284328626
2165,21.100774319346
2166,22.1960448038512
2167,22.187133176019
2168,22.1851604114995
2169,21.9882506317944
2170,18.3045996392911
2171,18.2952262855036
2172,18.2987023129901
2173,18.294782360779
2174,22.2003316968962
2175,21.0993700864294
2176,21.476016765529
2177,21.1014581882404
2178,21.1025406165574
2179,21.1017319278968
2180,21.106240598043
2181,21.1056006070109
2182,21.1026724441208
2183,21.1053329099967
2184,21.1012689208955
2185,21.1020409813245
2186,21.1030229706739
2187,21.1061950468494
2188,21.1061420056462
2189,21.0993373845459
2190,21.1099315437306
2191,21.1051082509075
2192,21.1030439631669
2193,21.1049716512957
2194,21.1046412033282
2195,21.1039394609758
2196,21.0992821633106
2197,21.1025092968409
4031,865391.112514967
4032,0.0
4033,59.529458151188
4034,10.1689860814036
4035,6.7
4036,0.0
4037,0.0
4038,308060.673346853
4039,1.56663028448446
4040,35.1562137096662
4041,82.2
4042,0.0
4043,0.0
4044,11724.2180070238
4045,6.201999413232914E-002
4046,14.831494733348
4047,58.8884334659179
4048,288.497226222256
4049,3188223.61884242
4050,0.0
4051,132.793552539482
4052,20.4489848290619
4053,18.0861261538172
4054,-1877155.93891969
4613,0.33
4615,0.33
4617,1.
4619,1.
4676,0.284976824831073
4678,649100259.620394
4711,4.79534319490907
4723,1410964916.09246
4744,35.1562137096662
4745,82.2
4767,9.054029062946269E-002
5404,580957887.47018
5405,874407472.468747
5406,139497088.380784
5407,441460799.08941
5408,334101643.843893
5409,565957238.394744
5410,108920138.255546
5411,225181505.588361
5412,236134677.27275
5413,696085010.30275
5414,55527909.7300207
5415,180606767.542736
5416,370928837.201013
5417,937683500.771447
5418,62636032.1084511
5419,308292805.09255
4027,0.0
4028,0.0
4029,0.0
4030,0.0
4566,0.0
4567,0.0
4568,0.0
4569,0.0
4612,0.0
4614,0.0
4616,1.
4618,1.
11,3179493437.94078
41,635295734.427377
1206,1089404771.51693
1775,1575624349.02628
1805,101964059.29728
2050,62695373.6365397
4527,366581168.483805
4680,649100259.620394
4725,1410964916.09246
4748,0.0
2,1, 6, 1, 1, 7, 0.00,15.00,Monday         
6,15.975
4677,170732.018998092
2,1, 6, 1, 1, 7,15.00,30.00,Monday         
6,15.85
4677,167651.720699097
2,1, 6, 1, 1, 7,30.00,45.00,Monday         
6,15.725
4677,164766.380907009
2,1, 6, 1, 1, 7,45.00,60.00,Monday         
6,15.6
4677,162037.695521629
2,1, 6, 1, 1, 7, 0.00,60.00,Monday         
7,9.006004256625611E-003
8,79.125
2143,22.2010267345557
2144,22.2002016638154
2145,21.1006195690159
2146,21.2816529786803
2147,21.1000568613051
2148,21.1004482244649
2149,21.0998432564033
2150,21.1003378979247
2151,22.0919310251351
2152,21.1062050671827
2153,21.1059458343199
2154,22.2005051629407
2155,21.1104951706519
2156,21.109554753523
2157,21.1069717963288
2158,21.0985764592566
2159,22.2004913082403
2160,21.1017260746483
2161,21.1071738628074
2162,21.0998728384305
2163,19.0522556356917
2164,21.1027922882391
2165,21.0996597305278
2166,22.2004901334335
2167,22.2002613485674
2168,22.2002665374684
2169,22.1999514897913
2170,18.3010528368385
2171,18.296815388499
2172,18.2989035400951
2173,18.3020128948958
2174,22.2005084736851
2175,21.1012658335973
2176,21.844016887217
2177,21.2480882732699
2178,21.1018304168267
2179,21.2074324422371
2180,21.0993755440937
2181,21.1020174363442
2182,21.1078883816873
2183,21.1045698727571
2184,21.1013906538602
2185,21.101670419273
2186,21.103319689645
2187,21.1032356545223
2188,21.1041486527983
2189,21.1050408163996
2190,21.1065131538113
2191,21.1027794110496
2192,21.1012188224389