Program Version,EnergyPlus-Windows-64 8.0.0.008, YMD=2013.06.10 10:24
1,5,Environment Title[],Latitude[deg],Longitude[deg],Time Zone[],Elevation[m]
2,6,Day of Simulation[],Month[],Day of Month[],DST Indicator[1=yes 0=no],Hour[],StartMinute[],EndMinute[],DayType
3,3,Cumulative Day of Simulation[],Month[],Day of Month[],DST Indicator[1=yes 0=no],DayType  ! When Daily Report Variables Requested
4,2,Cumulative Days of Simulation[],Month[]  ! When Monthly Report Variables Requested
5,1,Cumulative Days of Simulation[] ! When Run Period Report Variables Requested
6,1,Environment,Site Outdoor Air Drybulb Temperature [C] !TimeStep
267,1,ZSF1,Zone Air System Sensible Heating Rate [W] !TimeStep
268,1,ZSF1,Zone Air System Sensible Cooling Rate [W] !TimeStep
269,1,ZSF1,Zone Air Temperature [C] !TimeStep
270,1,ZSF1,Zone Air Humidity Ratio [] !TimeStep
303,1,ZNF1,Zone Air System Sensible Heating Rate [W] !TimeStep
304,1,ZNF1,Zone Air System Sensible Cooling Rate [W] !TimeStep
305,1,ZNF1,Zone Air Temperature [C] !TimeStep
306,1,ZNF1,Zone Air Humidity Ratio [] !TimeStep
339,1,ZSF2,Zone Air System Sensible Heating Rate [W] !TimeStep
340,1,ZSF2,Zone Air System Sensible Cooling Rate [W] !TimeStep
341,1,ZSF2,Zone Air Temperature [C] !TimeStep
342,1,ZSF2,Zone Air Humidity Ratio [] !TimeStep
375,1,ZNF2,Zone Air System Sensible Heating Rate [W] !TimeStep
376,1,ZNF2,Zone Air System Sensible Cooling Rate [W] !TimeStep
377,1,ZNF2,Zone Air Temperature [C] !TimeStep
378,1,ZNF2,Zone Air Humidity Ratio [] !TimeStep
411,1,BASE-1,Zone Air System Sensible Heating Rate [W] !TimeStep
412,1,BASE-1,Zone Air System Sensible Cooling Rate [W] !TimeStep
413,1,BASE-1,Zone Air Humidity Ratio [] !TimeStep
414,1,DX COOLING COIL SYSTEM 1,Coil System Part Load Ratio [] !TimeStep
415,1,DX COOLING COIL SYSTEM 2,Coil System Part Load Ratio [] !TimeStep
416,1,DX COOLING COIL SYSTEM 3,Coil System Part Load Ratio [] !TimeStep
417,1,DX COOLING COIL SYSTEM 4,Coil System Part Load Ratio [] !TimeStep
418,1,ACDXCOIL 1,Cooling Coil Total Cooling Rate [W] !TimeStep
440,1,ACDXCOIL 1,Cooling Coil Sensible Cooling Rate [W] !TimeStep
441,1,ACDXCOIL 1,Cooling Coil Electric Power [W] !TimeStep
463,1,ACDXCOIL 2,Cooling Coil Total Cooling Rate [W] !TimeStep
465,1,ACDXCOIL 2,Cooling Coil Sensible Cooling Rate [W] !TimeStep
466,1,ACDXCOIL 2,Cooling Coil Electric Power [W] !TimeStep
468,1,ACDXCOIL 3,Cooling Coil Total Cooling Rate [W] !TimeStep
470,1,ACDXCOIL 3,Cooling Coil Sensible Cooling Rate [W] !TimeStep
471,1,ACDXCOIL 3,Cooling Coil Electric Power [W] !TimeStep
473,1,ACDXCOIL 4,Cooling Coil Total Cooling Rate [W] !TimeStep
475,1,ACDXCOIL 4,Cooling Coil Sensible Cooling Rate [W] !TimeStep
476,1,ACDXCOIL 4,Cooling Coil Electric Power [W] !TimeStep
489,1,MAIN HEATING COIL 1,Heating Coil Air Heating Rate [W] !TimeStep
532,1,MAIN HEATING COIL 1,Heating Coil Electric Power [W] !TimeStep
535,1,MAIN HEATING COIL 2,Heating Coil Air Heating Rate [W] !TimeStep
538,1,MAIN HEATING COIL 2,Heating Coil Electric Power [W] !TimeStep
541,1,MAIN HEATING COIL 3,Heating Coil Air Heating Rate [W] !TimeStep
544,1,MAIN HEATING COIL 3,Heating Coil Electric Power [W] !TimeStep
547,1,MAIN HEATING COIL 4,Heating Coil Air Heating Rate [W] !TimeStep
550,1,MAIN HEATING COIL 4,Heating Coil Electric Power [W] !TimeStep
552,1,SUPPLY FAN 1,Fan Electric Power [W] !TimeStep
574,1,SUPPLY FAN 2,Fan Electric Power [W] !TimeStep
576,1,SUPPLY FAN 3,Fan Electric Power [W] !TimeStep
578,1,SUPPLY FAN 4,Fan Electric Power [W] !TimeStep
687,1,TSETCOO,Schedule Value [] !TimeStep
688,1,TSETHEA,Schedule Value [] !TimeStep
456,9,Cooling:Electricity [J] !Monthly  [Value,Min,Day,Hour,Minute,Max,Day,Hour,Minute]
514,9,Heating:Gas [J] !Monthly  [Value,Min,Day,Hour,Minute,Max,Day,Hour,Minute]
557,9,Fans:Electricity [J] !Monthly  [Value,Min,Day,Hour,Minute,Max,Day,Hour,Minute]
482,9,HeatingCoils:EnergyTransfer [J] !Monthly  [Value,Min,Day,Hour,Minute,Max,Day,Hour,Minute]
433,9,CoolingCoils:EnergyTransfer [J] !Monthly  [Value,Min,Day,Hour,Minute,Max,Day,Hour,Minute]
41,9,InteriorLights:Electricity [J] !Monthly  [Value,Min,Day,Hour,Minute,Max,Day,Hour,Minute]
135,9,InteriorEquipment:Electricity [J] !Monthly  [Value,Min,Day,Hour,Minute,Max,Day,Hour,Minute]
457,11,Cooling:Electricity [J] !RunPeriod [Value,Min,Month,Day,Hour,Minute,Max,Month,Day,Hour,Minute]
515,11,Heating:Gas [J] !RunPeriod [Value,Min,Month,Day,Hour,Minute,Max,Month,Day,Hour,Minute]
558,11,Fans:Electricity [J] !RunPeriod [Value,Min,Month,Day,Hour,Minute,Max,Month,Day,Hour,Minute]
483,11,HeatingCoils:EnergyTransfer [J] !RunPeriod [Value,Min,Month,Day,Hour,Minute,Max,Month,Day,Hour,Minute]
434,11,CoolingCoils:EnergyTransfer [J] !RunPeriod [Value,Min,Month,Day,Hour,Minute,Max,Month,Day,Hour,Minute]
42,11,InteriorLights:Electricity [J] !RunPeriod [Value,Min,Month,Day,Hour,Minute,Max,Month,Day,Hour,Minute]
136,11,InteriorEquipment:Electricity [J] !RunPeriod [Value,Min,Month,Day,Hour,Minute,Max,Month,Day,Hour,Minute]
End of Data Dictionary
1,Chicago Ohare Intl Ap IL USA TMY3 WMO#=725300,  41.98, -87.92,  -6.00, 201.00
2,1, 6, 1, 0, 1, 0.00,15.00,Tuesday        
6,14.5
687,0.0
688,0.0
267,0.0
268,0.0
269,23.391242772491
270,6.494615618730251E-003
303,0.0
304,0.0
305,23.3860933535838
306,6.494994466564816E-003
339,0.0
340,0.0
341,23.788874883819
342,6.487791805039442E-003
375,0.0
376,0.0
377,23.8180194476645
378,6.487190043154591E-003
411,0.0
412,0.0
413,6.879841341999534E-003
414,0.0
415,0.0
416,0.0
417,0.0
418,0.0
440,0.0
441,0.0
463,0.0
465,0.0
466,0.0
468,0.0
470,0.0
471,0.0
473,0.0
475,0.0
476,0.0
489,0.0
532,0.0
535,0.0
538,0.0
541,0.0
544,0.0
547,0.0
550,0.0
552,0.0
574,0.0
576,0.0
578,0.0
2,1, 6, 1, 0, 1,15.00,30.00,Tuesday        
6,15.7
687,25.
688,20.
267,0.0
268,0.0
269,23.4460902200215
270,6.595878308779347E-003
303,0.0
304,0.0
305,23.4406290147303
306,6.596232756427212E-003
339,0.0
340,0.0
341,23.8168551175242
342,6.590427541915547E-003
375,0.0
376,0.0
377,23.8435809866213
378,6.589923258105533E-003
411,0.0
412,0.0
413,7.264104528228798E-003
414,0.0
415,0.0
416,0.0
417,0.0
418,0.0
440,0.0
441,0.0
463,0.0
465,0.0
466,0.0
468,0.0
470,0.0
471,0.0
473,0.0
475,0.0
476,0.0
489,0.0
532,0.0
535,0.0
538,0.0
541,0.0
544,0.0
547,0.0
550,0.0
552,0.0
574,0.0
576,0.0
578,0.0
2,1, 6, 1, 0, 1,30.00,45.00,Tuesday        
6,16.9
687,30.
688,16.
267,0.0
268,0.0
269,23.5357419475054
270,6.871843552093112E-003
303,0.0
304,0.0
305,23.5297898400069
306,6.872114554198888E-003
339,0.0
340,0.0
341,23.8655494116706
342,6.870237584958675E-003
375,0.0
376,0.0
377,23.888262800248
378,6.870008049882593E-003
411,0.0
412,0.0
413,8.136197956030133E-003
414,0.0
415,0.0
416,0.0
417,0.0
418,0.0
440,0.0
441,0.0
463,0.0
465,0.0
466,0.0
468,0.0
470,0.0
471,0.0
473,0.0
475,0.0
476,0.0
489,0.0
532,0.0
535,0.0
538,0.0
541,0.0
544,0.0
547,0.0
550,0.0
552,0.0
574,0.0
576,0.0
578,0.0
2,1, 6, 1, 0, 1,45.00,60.00,Tuesday        
6,18.1
687,30.
688,16.
267,0.0
268,0.0
269,23.6376724714501
270,7.235021175341944E-003
303,0.0
304,0.0
305,23.6314152230449
306,7.235196498214806E-003
339,0.0
340,0.0
341,23.9486375632893
342,7.237617887489695E-003
375,0.0
376,0.0
377,23.9685164570232
378,7.237671024482039E-003
411,0.0
412,0.0
413,9.143293824657110E-003
414,0.0
415,0.0
416,0.0
417,0.0
418,0.0
440,0.0
441,0.0
463,0.0
465,0.0
466,0.0
468,0.0
470,0.0
471,0.0
473,0.0
475,0.0
476,0.0
489,0.0
532,0.0
535,0.0
538,0.0
541,0.0
544,0.0
547,0.0
550,0.0
552,0.0
574,0.0
576,0.0
578,0.0
2,1, 6, 1, 0, 2, 0.00,15.00,Tuesday        
6,18.125
687,30.
688,16.
267,0.0
268,0.0
269,23.702274980268
270,7.621938466435971E-003
303,0.0
304,0.0
305,23.6958346651947
306,7.622019662332811E-003
339,0.0
340,0.0
341,24.004399673513
342,7.628422277650925E-003
375,0.0
376,0.0
377,24.021880582445
378,7.628720725519952E-003
411,0.0
412,0.0
413,9.995417327365790E-003
414,0.0
415,0.0
416,0.0
417,0.0
418,0.0
440,0.0
441,0.0
463,0.0
465,0.0
466,0.0
468,0.0
470,0.0
471,0.0
473,0.0
475,0.0
476,0.0
489,0.0
532,0.0
535,0.0
538,0.0
541,0.0
544,0.0
547,0.0
550,0.0
552,0.0
574,0.0
576,0.0
578,0.0
2,1, 6, 1, 0, 2,15.00,30.00,Tuesday        
6,18.15
687,30.
688,16.
267,0.0
268,0.0
269,23.7276753800371
270,7.993949289330527E-003
303,0.0
304,0.0
305,23.7211153960242
306,7.993946551874898E-003
339,0.0
340,0.0
341,24.0267035937505
342,8.003676084365426E-003
375,0.0
376,0.0
377,24.0422101712908
378,8.004162764887140E-003
411,0.0
412,0.0
413,1.058670310390059E-002
414,0.0
415,0.0
416,0.0
417,0.0
418,0.0
440,0.0
441,0.0
463,0.0
465,0.0
466,0.0
468,0.0
470,0.0
471,0.0
473,0.0
475,0.0
476,0.0
489,0.0
532,0.0
535,0.0
538,0.0
541,0.0
544,0.0
547,0.0
550,0.0
552,0.0
574,0.0
576,0.0
578,0.0
2,1, 6, 1, 0, 2,30.00,45.00,Tuesday        
6,18.175
687,30.
688,16.
267,0.0
268,0.0
269,23.7355547078211
270,8.339430491363525E-003
303,0.0
304,0.0
305,23.7289115031102
306,8.339356126329090E-003
339,0.0
340,0.0
341,24.0347291104804
342,8.351744637542794E-003
375,0.0
376,0.0
377,24.048561613322
378,8.352363307942170E-003
411,0.0
412,0.0
413,1.096449704102100E-002
414,0.0
415,0.0
416,0.0
417,0.0
418,0.0
440,0.0
441,0.0
463,0.0
465,0.0
466,0.0
468,0.0
470,0.0
471,0.0
473,0.0
475,0.0
476,0.0
489,0.0
532,0.0
535,0.0
538,0.0
541,0.0
544,0.0
547,0.0
550,0.0
552,0.0
574,0.0
576,0.0
578,0.0
2,1, 6, 1, 0, 2,45.00,60.00,Tuesday        
6,18.2
687,30.
688,16.
267,0.0
268,0.0
269,23.7376572892329
270,8.659375460739391E-003
303,0.0
304,0.0
305,23.7309597286111
306,8.659240880131303E-003
339,0.0
340,0.0
341,24.038531420822
342,8.673739789497082E-003
375,0.0
376,0.0
377,24.0508961380333
378,8.674444921120487E-003
411,0.0
412,0.0
413,1.121537402432909E-002
414,0.0
415,0.0
416,0.0
417,0.0
418,0.0
440,0.0
441,0.0
463,0.0
465,0.0
466,0.0
468,0.0
470,0.0
471,0.0
473,0.0
475,0.0
476,0.0
489,0.0
532,0.0
535,0.0
538,0.0
541,0.0
544,0.0
547,0.0
550,0.0
552,0.0
574,0.0
576,0.0
578,0.0
2,1, 6, 1, 0, 3, 0.00,15.00,Tuesday        
6,18.2
687,30.
688,16.
267,0.0
268,0.0
269,23.735178546787
270,8.945954225522846E-003
303,0.0
304,0.0
305,23.7284573522753
306,8.945771819538062E-003
339,0.0
340,0.0
341,24.0382028974762
342,8.961830001393535E-003
375,0.0
376,0.0
377,24.0492719305473
378,8.962582833060048E-003
411,0.0
412,0.0
413,1.135358896103447E-002
414,0.0
415,0.0
416,0.0
417,0.0
418,0.0
440,0.0
441,0.0
463,0.0
465,0.0
466,0.0
468,0.0
470,0.0
471,0.0
473,0.0
475,0.0
476,0.0
489,0.0
532,0.0
535,0.0
538,0.0
541,0.0
544,0.0
547,0.0
550,0.0
552,0.0
574,0.0
576,0.0
578,0.0
2,1, 6, 1, 0, 3,15.00,30.00,Tuesday        
6,18.2
687,30.
688,16.
267,0.0
268,0.0
269,23.7286154980493
270,9.196021990186499E-003
303,0.0
304,0.0
305,23.721884610914
306,9.195803983254883E-003
339,0.0
340,0.0
341,24.0338786575232
342,9.212898559267695E-003
375,0.0
376,0.0
377,24.0438093913198
378,9.213668085820701E-003
411,0.0
412,0.0
413,1.139957002318434E-002
414,0.0
415,0.0
416,0.0
417,0.0
418,0.0
440,0.0
441,0.0
463,0.0
465,0.0
466,0.0
468,0.0
470,0.0
471,0.0
473,0.0
475,0.0
476,0.0
489,0.0
532,0.0
535,0.0
538,0.0
541,0.0
544,0.0
547,0.0
550,0.0
552,0.0
574,0.0
576,0.0
578,0.0
2,1, 6, 1, 0, 3,30.00,45.00,Tuesday        
6,18.2
687,30.
688,16.
267,0.0
268,0.0
269,23.7185913281356
270,9.410958114659302E-003
303,0.0
304,0.0
305,23.7118555164711
306,9.410715460288824E-003
339,0.0
340,0.0
341,24.0258909641109
342,9.428387685722855E-003
375,0.0
376,0.0
377,24.0348174408221
378,9.429150863629013E-003
411,0.0
412,0.0
413,1.138233915116670E-002
414,0.0
415,0.0
416,0.0
417,0.0
418,0.0
440,0.0
441,0.0
463,0.0
465,0.0
466,0.0
468,0.0
470,0.0
471,0.0
473,0.0
475,0.0
476,0.0
489,0.0
532,0.0
535,0.0
538,0.0
541,0.0
544,0.0
547,0.0
550,0.0
552,0.0
574,0.0
576,0.0
578,0.0
2,1, 6, 1, 0, 3,45.00,60.00,Tuesday        
6,18.2
687,30.
688,16.
267,0.0
268,0.0
269,23.705740485903
270,9.593999642506287E-003
303,0.0
304,0.0
305,23.6990027255117
306,9.593741609540973E-003
339,0.0
340,0.0
341,24.0146024392673
342,9.611607414961542E-003
375,0.0
376,0.0
377,24.0226351931454
378,9.612348088440636E-003
411,0.0
412,0.0
413,1.132769412243479E-002
414,0.0
415,0.0
416,0.0
417,0.0
418,0.0
440,0.0
441,0.0
463,0.0
465,0.0
466,0.0
468,0.0
470,0.0
471,0.0
473,0.0
475,0.0
476,0.0
489,0.0
532,0.0
535,0.0
538,0.0
541,0.0
544,0.0
547,0.0
550,0.0
552,0.0
574,0.0
576,0.0
578,0.0
2,1, 6, 1, 0, 4, 0.00,15.00,Tuesday        
6,18.225
687,30.
688,16.
267,0.0
268,0.0
269,23.6916282828949
270,9.749298525069344E-003
303,0.0
304,0.0
305,23.6848900561889
306,9.749032573402656E-003
339,0.0
340,0.0
341,24.001412937033
342,9.766786130169652E-003
375,0.0
376,0.0
377,24.0086413963248
378,9.767493730557516E-003
411,0.0
412,0.0
413,1.125620040095856E-002
414,0.0
415,0.0
416,0.0
417,0.0
418,0.0
440,0.0
441,0.0
463,0.0
465,0.0
466,0.0
468,0.0
470,0.0
471,0.0
473,0.0
475,0.0
476,0.0
489,0.0
532,0.0
535,0.0
538,0.0
541,0.0
544,0.0
547,0.0
550,0.0
552,0.0
574,0.0
576,0.0
578,0.0
2,1, 6, 1, 0, 4,15.00,30.00,Tuesday        
6,18.25
687,30.
688,16.
267,0.0
268,0.0
269,23.676393932083
270,9.880292235445327E-003
303,0.0
304,0.0
305,23.6696561805749
306,9.880024336457226E-003
339,0.0
340,0.0
341,23.9863261747823
342,9.897422755167071E-003
375,0.0
376,0.0
377,23.9928082199331
378,9.898090730626967E-003
411,0.0
412,0.0
413,1.117812996381915E-002
414,0.0
415,0.0
416,0.0
417,0.0
418,0.0
440,0.0
441,0.0
463,0.0
465,0.0
466,0.0
468,0.0
470,0.0
471,0.0
473,0.0
475,0.0
476,0.0
489,0.0
532,0.0
535,0.0
538,0.0
541,0.0
544,0.0
547,0.0
550,0.0
552,0.0
574,0.0
576,0.0
578,0.0
2,1, 6, 1, 0, 4,30.00,45.00,Tuesday        
6,18.275
687,30.
688,16.
267,0.0
268,0.0
269,23.6602998184342
270,9.989646027695604E-003
303,0.0
304,0.0
305,23.6535636340537
306,9.989380988308929E-003
339,0.0
340,0.0
341,23.9696109028458
342,1.000623012642497E-002
375,0.0
376,0.0
377,23.9754089406192
378,1.000685471574343E-002
411,0.0
412,0.0
413,1.109708871156721E-002
414,0.0
415,0.0
416,0.0
417,0.0
418,0.0
440,0.0
441,0.0
463,0.0
465,0.0
466,0.0
468,0.0
470,0.0
471,0.0
473,0.0
475,0.0
476,0.0
489,0.0
532,0.0
535,0.0
538,0.0
541,0.0
544,0.0
547,0.0
550,0.0
552,0.0
574,0.0
576,0.0
578,0.0
2,1, 6, 1, 0, 4,45.00,60.00,Tuesday        
6,18.3
687,30.
688,16.
267,0.0
268,0.0
269,23.6435522173626
270,1.007953967977732E-002
303,0.0
304,0.0
305,23.6368182360266
306,1.007928137084020E-002
339,0.0
340,0.0
341,23.9515515859208
342,1.009542678603973E-002
375,0.0
376,0.0
377,23.956725692802
378,1.009600623178965E-002
411,0.0
412,0.0
413,1.101403195155030E-002
414,0.0
415,0.0
416,0.0
417,0.0
418,0.0
440,0.0
441,0.0
463,0.0
465,0.0
466,0.0
468,0.0
470,0.0
471,0.0
473,0.0
475,0.0
476,0.0
489,0.0
532,0.0
535,0.0
538,0.0
541,0.0
544,0.0
547,0.0
550,0.0
552,0.0
574,0.0
576,0.0
578,0.0
2,1, 6, 1, 0, 5, 0.00,15.00,Tuesday        
6,18.175
687,30.
688,16.
267,0.0
268,0.0
269,23.6198951858072
270,1.015197509887896E-002
303,0.0
304,0.0
305,23.6131722955394
306,1.015172668708775E-002
339,0.0
340,0.0
341,23.9257357865898
342,1.016704339049756E-002
375,0.0
376,0.0
377,23.9303500185061
378,1.016757726340480E-002
411,0.0
412,0.0
413,1.092884225098999E-002
414,0.0
415,0.0
416,0.0
417,0.0
418,0.0
440,0.0
441,0.0
463,0.0
465,0.0
466,0.0
468,0.0
470,0.0
471,0.0
473,0.0
475,0.0
476,0.0
489,0.0
532,0.0
535,0.0
538,0.0
541,0.0
544,0.0
547,0.0
550,0.0
552,0.0
574,0.0
576,0.0
578,0.0
2,1, 6, 1, 0, 5,15.00,30.00,Tuesday        
6,18.05
687,30.
688,16.
267,0.0
268,0.0
269,23.6001724033145
270,1.020868698943877E-002
303,0.0
304,0.0
305,23.5946822694566
306,1.020845111450288E-002
339,0.0
340,0.0
341,23.9046245912462
342,1.022284227135705E-002
375,0.0
376,0.0
377,23.9101123757347
378,1.022333130656183E-002
411,0.0
412,0.0
413,1.084198982718100E-002
414,0.0
415,0.0
416,0.0
417,0.0
418,0.0
440,0.0
441,0.0
463,0.0
465,0.0
466,0.0
468,0.0
470,0.0
471,0.0
473,0.0
475,0.0
476,0.0
489,0.0
532,0.0
535,0.0
538,0.0
541,0.0
544,0.0
547,0.0
550,0.0
552,0.0
574,0.0
576,0.0
578,0.0
2,1, 6, 1, 0, 5,30.00,45.00,Tuesday        
6,17.925
687,30.
688,16.
267,0.0
268,0.0
269,23.5856515058233
270,1.025120675017635E-002
303,0.0
304,0.0
305,23.5818060884281
306,1.025098617683605E-002
339,0.0
340,0.0
341,23.890457530612
342,1.026438219604434E-002
375,0.0
376,0.0
377,23.8976235026135
378,1.026482872587283E-002
411,0.0
412,0.0
413,1.075427377051122E-002
414,0.0
415,0.0
416,0.0
417,0.0
418,0.0
440,0.0
441,0.0
463,0.0
465,0.0
466,0.0
468,0.0
470,0.0
471,0.0
473,0.0
475,0.0
476,0.0
489,0.0
532,0.0
535,0.0
538,0.0
541,0.0
544,0.0
547,0.0
550,0.0
552,0.0
574,0.0
576,0.0
578,0.0
2,1, 6, 1, 0, 5,45.00,60.00,Tuesday        
6,17.8
687,30.
688,16.
267,0.0
268,0.0
269,23.5738939110981
270,1.028091298316429E-002
303,0.0
304,0.0
305,23.5712413341784
306,1.028070992178408E-002
339,0.0
340,0.0
341,23.8807882507231
342,1.029306654219698E-002
375,0.0
376,0.0
377,23.8891673845769
378,1.029347351949756E-002
411,0.0
412,0.0
413,1.066637532855352E-002
414,0.0
415,0.0
416,0.0
417,0.0
418,0.0
440,0.0
441,0.0
463,0.0
465,0.0
466,0.0
468,0.0
470,0.0
471,0.0
473,0.0
475,0.0
476,0.0
489,0.0
532,0.0
535,0.0
538,0.0
541,0.0
544,0.0
547,0.0
550,0.0
552,0.0
574,0.0
576,0.0
578,0.0
2,1, 6, 1, 0, 6, 0.00,15.00,Tuesday        
6,17.375
687,30.
688,16.
267,0.0
268,0.0
269,23.5506428192512
270,1.028831926961189E-002
303,0.0
304,0.0
305,23.548374675855
306,1.028813560462684E-002
339,0.0
340,0.0
341,23.8605035429652
342,1.029931169684349E-002
375,0.0
376,0.0
377,23.8692180874939
378,1.029967838240320E-002
411,0.0
412,0.0
413,1.053263635156328E-002
414,0.0
415,0.0
416,0.0
417,0.0
418,0.0
440,0.0
441,0.0
463,0.0
465,0.0
466,0.0
468,0.0
470,0.0
471,0.0
473,0.0
475,0.0
476,0.0
489,0.0
532,0.0
535,0.0
538,0.0
541,0.0
544,0.0
547,0.0
550,0.0
552,0.0
574,0.0
576,0.0
578,0.0
2,1, 6, 1, 0, 6,15.00,30.00,Tuesday        
6,16.95
687,30.
688,16.
267,0.0
268,0.0
269,23.5161466054501
270,1.026867099813930E-002
303,0.0
304,0.0
305,23.5138921021373
306,1.026850756254538E-002
339,0.0
340,0.0
341,23.8290653445123
342,1.027832701148304E-002
375,0.0
376,0.0
377,23.83766009662
378,1.027865034378785E-002
411,0.0
412,0.0
413,1.034230746957521E-002
414,0.0
415,0.0
416,0.0
417,0.0
418,0.0
440,0.0
441,0.0
463,0.0
465,0.0
466,0.0
468,0.0
470,0.0
471,0.0
473,0.0
475,0.0
476,0.0
489,0.0
532,0.0
535,0.0
538,0.0
541,0.0
544,0.0
547,0.0
550,0.0
552,0.0
574,0.0
576,0.0
578,0.0
2,1, 6, 1, 0, 6,30.00,45.00,Tuesday        
6,16.525
687,30.
688,16.
267,0.0
268,0.0
269,23.479291559606
270,1.022227065615190E-002
303,0.0
304,0.0
305,23.4774177573246
306,1.022212748251755E-002
339,0.0
340,0.0
341,23.7953431546347
342,1.023043899030599E-002
375,0.0
376,0.0
377,23.804148431797
378,1.023071603378576E-002
411,0.0
412,0.0
413,1.011115007706843E-002
414,0.0
415,0.0
416,0.0
417,0.0
418,0.0
440,0.0
441,0.0
463,0.0
465,0.0
466,0.0
468,0.0
470,0.0
471,0.0
473,0.0
475,0.0
476,0.0
489,0.0
532,0.0
535,0.0
538,0.0
541,0.0
544,0.0
547,0.0
550,0.0
552,0.0
574,0.0
576,0.0
578,0.0
2,1, 6, 1, 0, 6,45.00,60.00,Tuesday        
6,16.1
687,30.
688,16.
267,0.0
268,0.0
269,23.442734571782
270,1.015169385402920E-002
303,0.0
304,0.0
305,23.4415627138638
306,1.015156999321961E-002
339,0.0
340,0.0
341,23.7621208652095
342,1.015827050044505E-002
375,0.0
376,0.0
377,23.7714841773666
378,1.015849911344412E-002
411,0.0
412,0.0
413,9.859456302244992E-003
414,0.0
415,0.0
416,0.0
417,0.0
418,0.0
440,0.0
441,0.0
463,0.0
465,0.0
466,0.0
468,0.0
470,0.0
471,0.0
473,0.0
475,0.0
476,0.0
489,0.0
532,0.0
535,0.0
538,0.0
541,0.0
544,0.0
547,0.0
550,0.0
552,0.0
574,0.0
576,0.0
578,0.0
2,1, 6, 1, 0, 7, 0.00,15.00,Tuesday        
6,15.975
687,30.
688,16.
267,0.0
268,0.0
269,23.4195167212206
270,1.006558981883343E-002
303,0.0
304,0.0
305,23.4189586533082
306,1.006548283952172E-002
339,0.0
340,0.0
341,23.7428722298344
342,1.007057432811840E-002
375,0.0
376,0.0
377,23.7527082496039
378,1.007075438301913E-002
411,0.0
412,0.0
413,9.623931892683025E-003
414,0.0
415,0.0
416,0.0
417,0.0
418,0.0
440,0.0
441,0.0
463,0.0
465,0.0
466,0.0
468,0.0
470,0.0
471,0.0
473,0.0
475,0.0
476,0.0
489,0.0
532,0.0
535,0.0
538,0.0
541,0.0
544,0.0
547,0.0
550,0.0
552,0.0
574,0.0
576,0.0
578,0.0
2,1, 6, 1, 0, 7,15.00,30.00,Tuesday        
6,15.85
687,30.
688,16.
267,0.0
268,0.0
269,23.4084917928297
270,9.969670417942156E-003
303,0.0
304,0.0
305,23.4082851022965
306,9.969577263068878E-003
339,0.0
340,0.0
341,23.7369800404022
342,9.973122172648979E-003
375,0.0
376,0.0
377,23.7469931018662
378,9.973254865915366E-003
411,0.0
412,0.0
413,9.416046170670263E-003
414,0.0
415,0.0
416,0.0
417,0.0
418,0.0
440,0.0
441,0.0
463,0.0
465,0.0
466,0.0
468,0.0
470,0.0
471,0.0
473,0.0
475,0.0
476,0.0
489,0.0
532,0.0
535,0.0
538,0.0
541,0.0
544,0.0
547,0.0
550,0.0
552,0.0
574,0.0
576,0.0
578,0.0
2,1, 6, 1, 0, 7,30.00,45.00,Tuesday        
6,15.725
687,22.
688,20.
267,0.0
268,0.0
269,23.4576897802876
270,9.866509360301215E-003
303,0.0
304,0.0
305,23.4623988386665
306,9.866426446706485E-003
339,0.0
340,0.0
341,23.8011191390071
342,9.868504114251178E-003
375,0.0
376,0.0
377,23.8160430687179
378,9.868590677513778E-003
411,0.0
412,0.0
413,9.230096557867664E-003
414,0.0
415,0.0
416,0.0
417,0.0
418,0.0
440,0.0
441,0.0
463,0.0
465,0.0
466,0.0
468,0.0
470,0.0
471,0.0
473,0.0
475,0.0
476,0.0
489,0.0
532,0.0
535,0.0
538,0.0
541,0.0
544,0.0
547,0.0
550,0.0
552,0.0
574,0.0
576,0.0
578,0.0
2,1, 6, 1, 0, 7,45.00,60.00,Tuesday        
6,15.6
687,22.
688,20.
267,0.0
268,0.0
269,23.5602328573362
270,9.757075208476415E-003
303,0.0
304,0.0
305,23.5700187925251
306,9.756991307506149E-003
339,0.0
340,0.0
341,23.9340415249308
342,9.757669248564731E-003
375,0.0
376,0.0
377,23.9541119547387
378,9.757702881451237E-003
411,0.0
412,0.0
413,9.056976021501982E-003
414,0.0
415,0.0
416,0.0
417,0.0
418,0.0
440,0.0
441,0.0
463,0.0
465,0.0
466,0.0
468,0.0
470,0.0
471,0.0
473,0.0
475,0.0
476,0.0
489,0.0
532,0.0
535,0.0
538,0.0
541,0.0
544,0.0
547,0.0
550,0.0
552,0.0
574,0.0
576,0.0
578,0.0
2,1, 6, 1, 0, 8, 0.00,15.00,Tuesday        
6,15.875
687,22.
688,20.
267,0.0
268,3759.47616901286
269,22.0953520858004
270,9.267527541638218E-003
303,0.0
304,3746.99882405048
305,22.1168107451101
306,9.269442608950875E-003
339,0.0
340,4519.98397991533
341,22.1627654743056
342,9.212605651784677E-003
375,0.0
376,4506.19861528019
377,22.1971557885709
378,9.215712530704951E-003
411,0.0
412,0.0
413,9.084593798027143E-003
414,0.4249506891106
415,0.443781885726518
416,0.45858247006241
417,0.476820980180308
418,6176.87533643677
440,4543.45605303383
441,1670.09918904375
463,6085.10747066639
465,4473.34586158323
466,1644.67141453402
468,7431.90518523145
470,5529.99610592463
471,2005.61437403108
473,7333.80389803531
475,5455.36349590611
476,1980.39148186445
489,0.0
532,0.0
535,0.0
538,0.0
541,0.0
544,0.0
547,0.0
550,0.0
552,608.571428571428
574,574.285714285714
576,677.142857142857
578,642.857142857143
2,1, 6, 1, 0, 8,15.00,30.00,Tuesday        
6,16.15
687,22.
688,20.
267,0.0
268,2404.72839385448
269,22.0104077940939
270,9.042234250081112E-003
303,0.0
304,2418.43142671732
305,22.012128632647
306,9.040251142225727E-003
339,0.0
340,2839.6819722979
341,22.0200124282265
342,8.959484240084747E-003
375,0.0
376,2862.85179526591
377,22.0231592243726
378,8.957025388377815E-003
411,0.0
412,0.0
413,9.101858894599815E-003
414,0.26927209565294
415,0.283858362679681
416,0.285705231588615
417,0.300757781575235
418,3847.18301646397
440,2823.49394894964
441,1089.06954982424
463,3827.15114268722
465,2808.55345025073
466,1080.26330520252
468,4539.25032558593
470,3359.59603929399
471,1280.35931964371
473,4536.93736305845
475,3358.89601321921
476,1275.76045897424
489,0.0
532,0.0
535,0.0
538,0.0
541,0.0
544,0.0
547,0.0
550,0.0
552,608.571428571429
574,574.285714285714
576,677.142857142857
578,642.857142857143
2,1, 6, 1, 0, 8,30.00,45.00,Tuesday        
6,16.425
687,22.
688,20.
267,0.0
268,2782.27371751698
269,22.0007109759101
270,8.743185464247278E-003
303,0.0
304,2763.58541375149
305,22.0007482189221
306,8.737885312180345E-003
339,0.0
340,3182.99880922311
341,22.0017929273602
342,8.640959600626207E-003
375,0.0
376,3155.02026913781
377,22.0019182388691
378,8.634841730873909E-003
411,0.0
412,0.0
413,9.107824360323305E-003
414,0.297453979657527
415,0.310101887249905
416,0.30463224669223
417,0.315525509512802
418,4217.22812134502
440,3176.1629269107
441,1191.40211606724
463,4147.92826296769
465,3123.25292835648
466,1169.31737025672
468,4796.51980516007
470,3647.56497162771
471,1353.17224105153
473,4715.20844779814
475,3585.57287054338
476,1327.78171638886
489,0.0
532,0.0
535,0.0
538,0.0
541,0.0
544,0.0
547,0.0
550,0.0
552,608.571428571429
574,574.285714285714
576,677.142857142857
578,642.857142857143
2,1, 6, 1, 0, 8,45.00,60.00,Tuesday        
6,16.7
687,22.
688,20.
267,0.0
268,2702.3623348149
269,21.9997652181651
270,8.464453998133514E-003
303,0.0
304,2679.07303494959
305,21.9997324003783
306,8.455061298988995E-003
339,0.0
340,3062.08276723542
341,22.0000680062647
342,8.357038531883555E-003
375,0.0
376,3029.12910792142
377,22.0000539904493
378,8.347527147106907E-003
411,0.0
412,0.0
413,9.108481457315947E-003
414,0.287154976252139
415,0.298749938541538
416,0.291297402359202
417,0.301056970708531
418,4053.87850663887
440,3106.03621889804
441,1146.74679076295
463,3978.94632850696
465,3048.41009426317
466,1123.33039335562
468,4565.64680329139
470,3534.89852998512
471,1290.30845164789
473,4478.29762498109
475,3467.65222365032
476,1263.51695614049
489,0.0
532,0.0
535,0.0
538,0.0
541,0.0
544,0.0
547,0.0
550,0.0
552,608.571428571429
574,574.285714285714
576,677.142857142857
578,642.857142857143
2,1, 6, 1, 0, 9, 0.00,15.00,Tuesday        
6,17.25
687,22.
688,20.
267,0.0
268,4276.16861273908
269,21.9996934892989
270,8.153701829366087E-003
303,0.0
304,4215.17341812064
305,21.9996521728197
306,8.141321426407066E-003
339,0.0
340,4763.61403270007
341,21.9997967934503
342,8.047590876982766E-003
375,0.0
376,4680.55792545966
377,21.9997632061263
378,8.036609302852936E-003
411,0.0
412,0.0
413,9.107814979816086E-003
414,0.425718774070449
415,0.441987422701831
416,0.424296452091939
417,0.436923058763816
418,5970.85338473746
440,4697.93094992052
441,1649.40391741731
463,5847.90431660169
465,4602.56788062524
466,1611.07322719821
468,6605.4821785876
470,5253.86513817329
471,1824.60620517751
473,6455.25658579289
475,5136.49364210864
476,1779.35187974817
489,0.0
532,0.0
535,0.0
538,0.0
541,0.0
544,0.0
547,0.0
550,0.0
552,608.571428571429
574,574.285714285714
576,677.142857142857
578,642.857142857143
2,1, 6, 1, 0, 9,15.00,30.00,Tuesday        
6,17.8
687,22.
688,20.
267,0.0
268,4563.9594134083
269,21.999318763834
270,7.856063449545663E-003
303,0.0
304,4449.43049224364
305,21.9992696890607
306,7.843818702329546E-003
339,0.0
340,5168.68039046062
341,21.9993608980463
342,7.750507182778436E-003
375,0.0
376,5019.00713129184
377,21.9993228545838
378,7.741320895483112E-003
411,0.0
412,0.0
413,9.107271385590240E-003
414,0.443886789376912
415,0.456318989200321
416,0.448866636960286
417,0.457428850893501
418,6179.95879981017
440,5007.27830665353
441,1700.5256162691
463,5992.96432179527
465,4858.47247947625
466,1645.63935537853
468,6936.36797230459
470,5680.28360451648
471,1906.46855312604
473,6708.22778509825
475,5496.38824812134
476,1841.10311583859
489,0.0
532,0.0
535,0.0
538,0.0
541,0.0
544,0.0
547,0.0
550,0.0
552,608.571428571429
574,574.285714285714
576,677.142857142857
578,642.857142857143
2,1, 6, 1, 0, 9,30.00,45.00,Tuesday        
6,18.35
687,22.
688,20.
267,0.0
268,4738.57468449075
269,21.9993087449848
270,7.601036584380851E-003
303,0.0
304,4561.35940296557
305,21.9992819663727
306,7.592490651629418E-003
339,0.0
340,5425.58678099545
341,21.9993091336417
342,7.494831845325779E-003
375,0.0
376,5199.90929847967
377,21.9992924678729
378,7.490642472134749E-003
411,0.0
412,0.0
413,9.107046639719223E-003
414,0.452659418593134
415,0.460099077373048
416,0.462147989032028
417,0.465545729224303
418,6234.22924560385
440,5203.21292876357
441,1719.22575494029
463,5977.74514081426
465,4991.81187578055
466,1646.41616940368
468,7064.21378803476
470,5958.44736485515
471,1944.41251182187
473,6753.74826801591
475,5698.64223609714
476,1857.86049281104
489,0.0
532,0.0
535,0.0
538,0.0
541,0.0
544,0.0
547,0.0
550,0.0
552,608.571428571429
574,574.285714285714
576,677.142857142857
578,642.857142857143
2,1, 6, 1, 0, 9,45.00,60.00,Tuesday        
6,18.9
687,22.
688,20.
267,0.0
268,4892.80218550842
269,21.9993718332128
270,7.392117903617599E-003
303,0.0
304,4648.03180868778
305,21.9993670109095
306,7.389882747377665E-003