Program Version,EnergyPlus-Windows-32 8.0.0.002, YMD=2013.02.14 13:26
1,5,Environment Title[],Latitude[degrees],Longitude[degrees],Time Zone[],Elevation[m]
2,6,Day of Simulation[],Month[],Day of Month[],DST Indicator[1=yes 0=no],Hour[],StartMinute[],EndMinute[],DayType
3,3,Cumulative Day of Simulation[],Month[],Day of Month[],DST Indicator[1=yes 0=no],DayType  ! When Daily Meters Requested
4,2,Cumulative Days of Simulation[],Month[]  ! When Monthly Meters Requested
5,1,Cumulative Days of Simulation[] ! When Run Period Meters Requested
170,9,Heating:DistrictHeating [J] !Monthly  [Value,Min,Day,Hour,Minute,Max,Day,Hour,Minute]
171,11,Heating:DistrictHeating [J] !RunPeriod [Value,Min,Month,Day,Hour,Minute,Max,Month,Day,Hour,Minute]
182,9,Electricity:Facility [J] !Monthly  [Value,Min,Day,Hour,Minute,Max,Day,Hour,Minute]
192,9,Electricity:Plant [J] !Monthly  [Value,Min,Day,Hour,Minute,Max,Day,Hour,Minute]
183,11,Electricity:Facility [J] !RunPeriod [Value,Min,Month,Day,Hour,Minute,Max,Month,Day,Hour,Minute]
193,11,Electricity:Plant [J] !RunPeriod [Value,Min,Month,Day,Hour,Minute,Max,Month,Day,Hour,Minute]
End of Data Dictionary
1,CHICAGO ANN CLG 1% CONDNS DB=>MWB,  39.74,-105.18,  -7.00,1829.00
4,1, 7
170,604503291.329428,0.0,21, 9,30,5531207.52841909,21,14,10
182,84303295.4431856,540009.027418241,21, 9,30,598734.167478727,21,14,30
192,84303295.4431856,540009.027418241,21, 9,30,598734.167478727,21,14,30
5,1
171,604503291.329428,0.0, 7,21, 9,30,5531207.52841909, 7,21,14,10
183,84303295.4431856,540009.027418241, 7,21, 9,30,598734.167478727, 7,21,14,30
193,84303295.4431856,540009.027418241, 7,21, 9,30,598734.167478727, 7,21,14,30
1,CHICAGO ANN HTG 99% CONDNS DB,  39.74,-105.18,  -7.00,1829.00
4,1, 1
170,604503291.329428,0.0,21, 9,30,5531207.52841909,21,14,10
182,84303295.4431856,540009.027418241,21, 9,30,598734.167478727,21,14,30
192,84303295.4431856,540009.027418241,21, 9,30,598734.167478727,21,14,30
5,1
171,604503291.329428,0.0, 1,21, 9,30,5531207.52841909, 1,21,14,10
183,84303295.4431856,540009.027418241, 1,21, 9,30,598734.167478727, 1,21,14,30
193,84303295.4431856,540009.027418241, 1,21, 9,30,598734.167478727, 1,21,14,30
1,ANNUAL,  39.74,-105.18,  -7.00,1829.00
4,31, 1
170,18917050573.5971,0.0, 1, 9,30,5574225.5128941,10,14,10
182,2613391580.65641,540009.027418082, 2, 9,30,598734.167478727, 1,14,30
192,2613391580.65641,540009.027418082, 2, 9,30,598734.167478727, 1,14,30
4,59, 2
170,17091841819.6032,0.0, 1, 9,30,5574225.5128941, 1,14,10
182,2360482391.61791,540009.027418083, 1, 9,30,598731.743190894, 1,14,30
192,2360482391.61791,540009.027418083, 1, 9,30,598731.743190894, 1,14,30
4,90, 3
170,18923110585.9893,0.0, 1, 9,30,5574225.5128941, 1,14,10
182,2613391219.29126,540009.027418083, 1, 9,30,598731.743190894, 1,14,30
192,2613391219.29126,540009.027418083, 1, 9,30,598731.743190894, 1,14,30
4,120, 4
170,18312687663.8606,0.0, 1, 9,30,5574225.5128941, 1,14,10
182,2529088276.73348,540009.027418083, 1, 9,30,598731.743190894, 1,14,30
192,2529088276.73348,540009.027418083, 1, 9,30,598731.743190894, 1,14,30
4,151, 5
170,18923110585.9893,0.0, 1, 9,30,5574225.5128941, 1,14,10
182,2613391219.29126,540009.027418083, 1, 9,30,598731.743190894, 1,14,30
192,2613391219.29126,540009.027418083, 1, 9,30,598731.743190894, 1,14,30
4,181, 6
170,18312687663.8606,0.0, 1, 9,30,5574225.5128941, 1,14,10
182,2529088276.73348,540009.027418083, 1, 9,30,598731.743190894, 1,14,30
192,2529088276.73348,540009.027418083, 1, 9,30,598731.743190894, 1,14,30
4,212, 7
170,18923110585.9893,0.0, 1, 9,30,5574225.5128941, 1,14,10
182,2613391219.29126,540009.027418083, 1, 9,30,598731.743190894, 1,14,30
192,2613391219.29126,540009.027418083, 1, 9,30,598731.743190894, 1,14,30
4,243, 8
170,18923110585.9893,0.0, 1, 9,30,5574225.5128941, 1,14,10
182,2613391219.29126,540009.027418083, 1, 9,30,598731.743190894, 1,14,30
192,2613391219.29126,540009.027418083, 1, 9,30,598731.743190894, 1,14,30
4,273, 9
170,18312687663.8606,0.0, 1, 9,30,5574225.5128941, 1,14,10
182,2529088276.73348,540009.027418083, 1, 9,30,598731.743190894, 1,14,30
192,2529088276.73348,540009.027418083, 1, 9,30,598731.743190894, 1,14,30
4,304,10
170,18923110585.9893,0.0, 1, 9,30,5574225.5128941, 1,14,10
182,2613391219.29126,540009.027418083, 1, 9,30,598731.743190894, 1,14,30
192,2613391219.29126,540009.027418083, 1, 9,30,598731.743190894, 1,14,30
4,334,11
170,18312687663.8606,0.0, 1, 9,30,5574225.5128941, 1,14,10
182,2529088276.73348,540009.027418083, 1, 9,30,598731.743190894, 1,14,30
192,2529088276.73348,540009.027418083, 1, 9,30,598731.743190894, 1,14,30
4,365,12
170,18923110585.9893,0.0, 1, 9,30,5574225.5128941, 1,14,10
182,2613391219.29126,540009.027418083, 1, 9,30,598731.743190894, 1,14,30
192,2613391219.29126,540009.027418083, 1, 9,30,598731.743190894, 1,14,30
5,365
171,222798306564.573,0.0, 1, 1, 9,30,5574225.5128941, 1,10,14,10
183,30770574394.9577,540009.027418082, 1, 2, 9,30,598734.167478727, 1, 1,14,30
193,30770574394.9577,540009.027418082, 1, 2, 9,30,598734.167478727, 1, 1,14,30
End of Data
 Number of Records Written=          51
