Program Version,EnergyPlus-Windows-64 8.0.0.008, YMD=2013.06.10 17:07
1,5,Environment Title[],Latitude[deg],Longitude[deg],Time Zone[],Elevation[m]
2,6,Day of Simulation[],Month[],Day of Month[],DST Indicator[1=yes 0=no],Hour[],StartMinute[],EndMinute[],DayType
3,3,Cumulative Day of Simulation[],Month[],Day of Month[],DST Indicator[1=yes 0=no],DayType  ! When Daily Report Variables Requested
4,2,Cumulative Days of Simulation[],Month[]  ! When Monthly Report Variables Requested
5,1,Cumulative Days of Simulation[] ! When Run Period Report Variables Requested
6,1,Environment,Site Outdoor Air Drybulb Temperature [C] !TimeStep
7,1,Environment,Site Outdoor Air Humidity Ratio [kgWater/kgDryAir] !Hourly
8,1,Environment,Site Outdoor Air Relative Humidity [%] !Hourly
1943,1,AUDITORIUM_ZN_1_FLR_1,Zone Mean Air Temperature [C] !Hourly
1944,1,AUX_GYM_ZN_1_FLR_1,Zone Mean Air Temperature [C] !Hourly
1945,1,BATHROOMS_ZN_1_FLR_1,Zone Mean Air Temperature [C] !Hourly
1946,1,BATHROOMS_ZN_1_FLR_2,Zone Mean Air Temperature [C] !Hourly
1947,1,CAFETERIA_ZN_1_FLR_1,Zone Mean Air Temperature [C] !Hourly
1948,1,CORNER_CLASS_1_POD_1_ZN_1_FLR_1,Zone Mean Air Temperature [C] !Hourly
1949,1,CORNER_CLASS_1_POD_1_ZN_1_FLR_2,Zone Mean Air Temperature [C] !Hourly
1950,1,CORNER_CLASS_1_POD_2_ZN_1_FLR_1,Zone Mean Air Temperature [C] !Hourly
1951,1,CORNER_CLASS_1_POD_2_ZN_1_FLR_2,Zone Mean Air Temperature [C] !Hourly
1952,1,CORNER_CLASS_1_POD_3_ZN_1_FLR_1,Zone Mean Air Temperature [C] !Hourly
1953,1,CORNER_CLASS_1_POD_3_ZN_1_FLR_2,Zone Mean Air Temperature [C] !Hourly
1954,1,CORNER_CLASS_2_POD_1_ZN_1_FLR_1,Zone Mean Air Temperature [C] !Hourly
1955,1,CORNER_CLASS_2_POD_1_ZN_1_FLR_2,Zone Mean Air Temperature [C] !Hourly
1956,1,CORNER_CLASS_2_POD_2_ZN_1_FLR_1,Zone Mean Air Temperature [C] !Hourly
1957,1,CORNER_CLASS_2_POD_2_ZN_1_FLR_2,Zone Mean Air Temperature [C] !Hourly
1958,1,CORNER_CLASS_2_POD_3_ZN_1_FLR_1,Zone Mean Air Temperature [C] !Hourly
1959,1,CORNER_CLASS_2_POD_3_ZN_1_FLR_2,Zone Mean Air Temperature [C] !Hourly
1960,1,CORRIDOR_POD_1_ZN_1_FLR_1,Zone Mean Air Temperature [C] !Hourly
1961,1,CORRIDOR_POD_1_ZN_1_FLR_2,Zone Mean Air Temperature [C] !Hourly
1962,1,CORRIDOR_POD_2_ZN_1_FLR_1,Zone Mean Air Temperature [C] !Hourly
1963,1,CORRIDOR_POD_2_ZN_1_FLR_2,Zone Mean Air Temperature [C] !Hourly
1964,1,CORRIDOR_POD_3_ZN_1_FLR_1,Zone Mean Air Temperature [C] !Hourly
1965,1,CORRIDOR_POD_3_ZN_1_FLR_2,Zone Mean Air Temperature [C] !Hourly
1966,1,GYM_ZN_1_FLR_1,Zone Mean Air Temperature [C] !Hourly
1967,1,KITCHEN_ZN_1_FLR_1,Zone Mean Air Temperature [C] !Hourly
1968,1,LIBRARY_MEDIA_CENTER_ZN_1_FLR_2,Zone Mean Air Temperature [C] !Hourly
1969,1,LOBBY_ZN_1_FLR_1,Zone Mean Air Temperature [C] !Hourly
1970,1,LOBBY_ZN_1_FLR_2,Zone Mean Air Temperature [C] !Hourly
1971,1,MAIN_CORRIDOR_ZN_1_FLR_1,Zone Mean Air Temperature [C] !Hourly
1972,1,MAIN_CORRIDOR_ZN_1_FLR_2,Zone Mean Air Temperature [C] !Hourly
1973,1,MECH_ZN_1_FLR_1,Zone Mean Air Temperature [C] !Hourly
1974,1,MECH_ZN_1_FLR_2,Zone Mean Air Temperature [C] !Hourly
1975,1,MULT_CLASS_1_POD_1_ZN_1_FLR_1,Zone Mean Air Temperature [C] !Hourly
1976,1,MULT_CLASS_1_POD_1_ZN_1_FLR_2,Zone Mean Air Temperature [C] !Hourly
1977,1,MULT_CLASS_1_POD_2_ZN_1_FLR_1,Zone Mean Air Temperature [C] !Hourly
1978,1,MULT_CLASS_1_POD_2_ZN_1_FLR_2,Zone Mean Air Temperature [C] !Hourly
1979,1,MULT_CLASS_1_POD_3_ZN_1_FLR_1,Zone Mean Air Temperature [C] !Hourly
1980,1,MULT_CLASS_1_POD_3_ZN_1_FLR_2,Zone Mean Air Temperature [C] !Hourly
1981,1,MULT_CLASS_2_POD_1_ZN_1_FLR_1,Zone Mean Air Temperature [C] !Hourly
1982,1,MULT_CLASS_2_POD_1_ZN_1_FLR_2,Zone Mean Air Temperature [C] !Hourly
1983,1,MULT_CLASS_2_POD_2_ZN_1_FLR_1,Zone Mean Air Temperature [C] !Hourly
1984,1,MULT_CLASS_2_POD_2_ZN_1_FLR_2,Zone Mean Air Temperature [C] !Hourly
1985,1,MULT_CLASS_2_POD_3_ZN_1_FLR_1,Zone Mean Air Temperature [C] !Hourly
1986,1,MULT_CLASS_2_POD_3_ZN_1_FLR_2,Zone Mean Air Temperature [C] !Hourly
1987,1,OFFICES_ZN_1_FLR_1,Zone Mean Air Temperature [C] !Hourly
1988,1,OFFICES_ZN_1_FLR_2,Zone Mean Air Temperature [C] !Hourly
3526,1,COOLSYS1,Plant System Cycle On Off Status [] !Hourly
3527,1,HEATSYS1,Plant System Cycle On Off Status [] !Hourly
3528,1,SWHSYS1,Plant System Cycle On Off Status [] !Hourly
3529,1,COOLSYS1,Plant Supply Side Cooling Demand Rate [W] !Hourly
3530,1,COOLSYS1,Plant Supply Side Heating Demand Rate [W] !Hourly
3531,1,COOLSYS1,Plant Supply Side Inlet Mass Flow Rate [kg/s] !Hourly
3532,1,COOLSYS1,Plant Supply Side Inlet Temperature [C] !Hourly
3533,1,COOLSYS1,Plant Supply Side Outlet Temperature [C] !Hourly
3534,1,COOLSYS1,Plant Supply Side Unmet Demand Rate [W] !Hourly
3535,1,HEATSYS1,Plant Supply Side Cooling Demand Rate [W] !Hourly
3536,1,HEATSYS1,Plant Supply Side Heating Demand Rate [W] !Hourly
3537,1,HEATSYS1,Plant Supply Side Inlet Mass Flow Rate [kg/s] !Hourly
3538,1,HEATSYS1,Plant Supply Side Inlet Temperature [C] !Hourly
3539,1,HEATSYS1,Plant Supply Side Outlet Temperature [C] !Hourly
3540,1,HEATSYS1,Plant Supply Side Unmet Demand Rate [W] !Hourly
3541,1,SWHSYS1,Plant Supply Side Cooling Demand Rate [W] !Hourly
3542,1,SWHSYS1,Plant Supply Side Heating Demand Rate [W] !Hourly
3543,1,SWHSYS1,Plant Supply Side Inlet Mass Flow Rate [kg/s] !Hourly
3544,1,SWHSYS1,Plant Supply Side Inlet Temperature [C] !Hourly
3545,1,SWHSYS1,Plant Supply Side Outlet Temperature [C] !Hourly
3546,1,SWHSYS1,Plant Supply Side Unmet Demand Rate [W] !Hourly
3940,1,PSZ-AC_1:5,Air System Simulation Cycle On Off Status [] !Hourly
3941,1,PSZ-AC_2:6,Air System Simulation Cycle On Off Status [] !Hourly
3942,1,PSZ-AC_3:7,Air System Simulation Cycle On Off Status [] !Hourly
3943,1,PSZ-AC_4:8,Air System Simulation Cycle On Off Status [] !Hourly
3944,1,PSZ-AC_5:9,Air System Simulation Cycle On Off Status [] !Hourly
3945,1,VAV_OTHER,Air System Simulation Cycle On Off Status [] !Hourly
3946,1,VAV_POD_1,Air System Simulation Cycle On Off Status [] !Hourly
3947,1,VAV_POD_2,Air System Simulation Cycle On Off Status [] !Hourly
3948,1,VAV_POD_3,Air System Simulation Cycle On Off Status [] !Hourly
3970,1,PSZ-AC_1:5,Air System Outdoor Air Economizer Status [] !Hourly
3971,1,PSZ-AC_1:5,Air System Outdoor Air Flow Fraction [] !Hourly
3972,1,PSZ-AC_2:6,Air System Outdoor Air Economizer Status [] !Hourly
3973,1,PSZ-AC_2:6,Air System Outdoor Air Flow Fraction [] !Hourly
3974,1,PSZ-AC_3:7,Air System Outdoor Air Economizer Status [] !Hourly
3975,1,PSZ-AC_3:7,Air System Outdoor Air Flow Fraction [] !Hourly
3976,1,PSZ-AC_4:8,Air System Outdoor Air Economizer Status [] !Hourly
3977,1,PSZ-AC_4:8,Air System Outdoor Air Flow Fraction [] !Hourly
3978,1,PSZ-AC_5:9,Air System Outdoor Air Economizer Status [] !Hourly
3979,1,PSZ-AC_5:9,Air System Outdoor Air Flow Fraction [] !Hourly
3980,1,VAV_OTHER,Air System Outdoor Air Economizer Status [] !Hourly
3981,1,VAV_OTHER,Air System Outdoor Air Flow Fraction [] !Hourly
3982,1,VAV_POD_1,Air System Outdoor Air Economizer Status [] !Hourly
3983,1,VAV_POD_1,Air System Outdoor Air Flow Fraction [] !Hourly
3984,1,VAV_POD_2,Air System Outdoor Air Economizer Status [] !Hourly
3985,1,VAV_POD_2,Air System Outdoor Air Flow Fraction [] !Hourly
3986,1,VAV_POD_3,Air System Outdoor Air Economizer Status [] !Hourly
3987,1,VAV_POD_3,Air System Outdoor Air Flow Fraction [] !Hourly
4068,1,COOLSYS1 CHILLER,Chiller Part Load Ratio [] !Hourly
4069,1,COOLSYS1 CHILLER,Chiller Electric Power [W] !TimeStep
4070,1,COOLSYS1 CHILLER,Chiller Electric Energy [J] !Hourly
4093,1,COOLSYS1 CHILLER,Chiller COP [W/W] !Hourly
4105,1,HEATSYS1 BOILER,Boiler Gas Energy [J] !Hourly
4116,1,HEATSYS1 BOILER,Boiler Inlet Temperature [C] !Hourly
4117,1,HEATSYS1 BOILER,Boiler Outlet Temperature [C] !Hourly
4129,1,HEATSYS1 BOILER,Boiler Part Load Ratio [] !Hourly
11,1,Electricity:Facility [J] !Hourly
3709,1,Fans:Electricity [J] !Hourly
3992,1,Cooling:Electricity [J] !Hourly
4038,1,Heating:Electricity [J] !Hourly
41,1,InteriorLights:Electricity [J] !Hourly
1017,1,InteriorEquipment:Electricity [J] !Hourly
1575,1,Gas:Facility [J] !Hourly
4026,1,Heating:Gas [J] !Hourly
1605,1,InteriorEquipment:Gas [J] !Hourly
1850,1,Water Heater:WaterSystems:Gas [J] !Hourly
13,9,Electricity:Facility [J] !Monthly  [Value,Min,Day,Hour,Minute,Max,Day,Hour,Minute]
1577,9,Gas:Facility [J] !Monthly  [Value,Min,Day,Hour,Minute,Max,Day,Hour,Minute]
4173,9,CO2:Facility [kg] !Monthly  [Value,Min,Day,Hour,Minute,Max,Day,Hour,Minute]
4194,9,CO:Facility [kg] !Monthly  [Value,Min,Day,Hour,Minute,Max,Day,Hour,Minute]
4215,9,CH4:Facility [kg] !Monthly  [Value,Min,Day,Hour,Minute,Max,Day,Hour,Minute]
4236,9,NOx:Facility [kg] !Monthly  [Value,Min,Day,Hour,Minute,Max,Day,Hour,Minute]
4257,9,N2O:Facility [kg] !Monthly  [Value,Min,Day,Hour,Minute,Max,Day,Hour,Minute]
4278,9,SO2:Facility [kg] !Monthly  [Value,Min,Day,Hour,Minute,Max,Day,Hour,Minute]
4299,9,PM:Facility [kg] !Monthly  [Value,Min,Day,Hour,Minute,Max,Day,Hour,Minute]
4320,9,PM10:Facility [kg] !Monthly  [Value,Min,Day,Hour,Minute,Max,Day,Hour,Minute]
4341,9,PM2.5:Facility [kg] !Monthly  [Value,Min,Day,Hour,Minute,Max,Day,Hour,Minute]
4362,9,NH3:Facility [kg] !Monthly  [Value,Min,Day,Hour,Minute,Max,Day,Hour,Minute]
4383,9,NMVOC:Facility [kg] !Monthly  [Value,Min,Day,Hour,Minute,Max,Day,Hour,Minute]
4404,9,Hg:Facility [kg] !Monthly  [Value,Min,Day,Hour,Minute,Max,Day,Hour,Minute]
4425,9,Pb:Facility [kg] !Monthly  [Value,Min,Day,Hour,Minute,Max,Day,Hour,Minute]
4446,9,WaterEnvironmentalFactors:Facility [L] !Monthly  [Value,Min,Day,Hour,Minute,Max,Day,Hour,Minute]
4467,9,Nuclear High:Facility [kg] !Monthly  [Value,Min,Day,Hour,Minute,Max,Day,Hour,Minute]
4488,9,Nuclear Low:Facility [m3] !Monthly  [Value,Min,Day,Hour,Minute,Max,Day,Hour,Minute]
4718,9,Carbon Equivalent:Facility [kg] !Monthly  [Value,Min,Day,Hour,Minute,Max,Day,Hour,Minute]
4737,1,PSZ-AC_1:5,Air System Total Heating Energy [J] !Hourly
4738,1,PSZ-AC_1:5,Air System Total Cooling Energy [J] !Hourly
4739,1,PSZ-AC_1:5,Air System Fan Electric Energy [J] !Hourly
4740,1,PSZ-AC_1:5,Air System Heating Coil Hot Water Energy [J] !Hourly
4741,1,PSZ-AC_2:6,Air System Total Heating Energy [J] !Hourly
4742,1,PSZ-AC_2:6,Air System Total Cooling Energy [J] !Hourly
4743,1,PSZ-AC_2:6,Air System Fan Electric Energy [J] !Hourly
4744,1,PSZ-AC_2:6,Air System Heating Coil Hot Water Energy [J] !Hourly
4745,1,PSZ-AC_3:7,Air System Total Heating Energy [J] !Hourly
4746,1,PSZ-AC_3:7,Air System Total Cooling Energy [J] !Hourly
4747,1,PSZ-AC_3:7,Air System Fan Electric Energy [J] !Hourly
4748,1,PSZ-AC_3:7,Air System Heating Coil Hot Water Energy [J] !Hourly
4749,1,PSZ-AC_4:8,Air System Total Heating Energy [J] !Hourly
4750,1,PSZ-AC_4:8,Air System Total Cooling Energy [J] !Hourly
4751,1,PSZ-AC_4:8,Air System Fan Electric Energy [J] !Hourly
4752,1,PSZ-AC_4:8,Air System Heating Coil Hot Water Energy [J] !Hourly
4753,1,PSZ-AC_5:9,Air System Total Heating Energy [J] !Hourly
4754,1,PSZ-AC_5:9,Air System Total Cooling Energy [J] !Hourly
4755,1,PSZ-AC_5:9,Air System Fan Electric Energy [J] !Hourly
4756,1,PSZ-AC_5:9,Air System Heating Coil Hot Water Energy [J] !Hourly
4757,1,VAV_OTHER,Air System Total Heating Energy [J] !Hourly
4758,1,VAV_OTHER,Air System Total Cooling Energy [J] !Hourly
4759,1,VAV_OTHER,Air System Fan Electric Energy [J] !Hourly
4760,1,VAV_OTHER,Air System Heating Coil Hot Water Energy [J] !Hourly
4761,1,VAV_POD_1,Air System Total Heating Energy [J] !Hourly
4762,1,VAV_POD_1,Air System Total Cooling Energy [J] !Hourly
4763,1,VAV_POD_1,Air System Fan Electric Energy [J] !Hourly
4764,1,VAV_POD_1,Air System Heating Coil Hot Water Energy [J] !Hourly
4765,1,VAV_POD_2,Air System Total Heating Energy [J] !Hourly
4766,1,VAV_POD_2,Air System Total Cooling Energy [J] !Hourly
4767,1,VAV_POD_2,Air System Fan Electric Energy [J] !Hourly
4768,1,VAV_POD_2,Air System Heating Coil Hot Water Energy [J] !Hourly
4769,1,VAV_POD_3,Air System Total Heating Energy [J] !Hourly
4770,1,VAV_POD_3,Air System Total Cooling Energy [J] !Hourly
4771,1,VAV_POD_3,Air System Fan Electric Energy [J] !Hourly
4772,1,VAV_POD_3,Air System Heating Coil Hot Water Energy [J] !Hourly
End of Data Dictionary
1,Chicago Ohare Intl Ap IL USA TMY3 WMO#=725300,  41.98, -87.92,  -6.00, 201.00
2,1, 6, 1, 1, 1, 0.00,15.00,Monday         
6,14.5
4069,0.0
2,1, 6, 1, 1, 1,15.00,30.00,Monday         
6,15.7
4069,0.0
2,1, 6, 1, 1, 1,30.00,45.00,Monday         
6,16.9
4069,0.0
2,1, 6, 1, 1, 1,45.00,60.00,Monday         
6,18.1
4069,0.0
2,1, 6, 1, 1, 1, 0.00,60.00,Monday         
7,9.307156053464183E-003
8,78.375
1943,27.2973188538811
1944,23.4712793590857
1945,23.7582693278836
1946,24.8079560357546
1947,24.3580462082939
1948,24.2827857231076
1949,24.959532913189
1950,24.2112107380225
1951,24.9054765212283
1952,24.215536421401
1953,24.9194820188735
1954,24.2280328822405
1955,24.9004343348199
1956,24.1596736382884
1957,24.855107956542
1958,24.1682283718538
1959,24.8777795192445
1960,25.2959884692659
1961,26.1417233484064
1962,24.7407255313498
1963,25.9338844087432
1964,24.7554123421612
1965,25.9748064115843
1966,24.0208311346817
1967,23.5089497253305
1968,25.6801227516649
1969,24.3305556545451
1970,25.5704195247767
1971,24.2917301276966
1972,25.3514283499126
1973,25.9447943160836
1974,27.1882732767597
1975,24.5521863336414
1976,25.4355334122238
1977,24.4633205050239
1978,25.3573887463447
1979,24.4820793674901
1980,25.4188147935072
1981,24.4773468193505
1982,25.3606339381114
1983,24.4035966882194
1984,25.3103087516847
1985,24.4285297381659
1986,25.3857897229303
1987,24.3298808181433
1988,25.0325769981798
3529,0.0
3530,0.0
3531,0.0
3532,8.67921539642628
3533,8.67921539642628
3534,0.0
3535,0.0
3536,0.0
3537,0.0
3538,66.7000141885834
3539,66.7000141885834
3540,0.0
3541,0.0
3542,1689.71548728022
3543,8.938433637441526E-003
3544,14.8314947334561
3545,59.7238166818389
3546,10.3277462843879
3971,0.0
3973,0.0
3975,0.26753375103738
3977,0.0
3979,0.0
3981,0.0
3983,0.0
3985,0.0
3987,0.0
4068,0.0
4070,0.0
4093,0.0
4105,0.0
4116,66.7000141885834
4117,66.7000141885834
4129,0.0
4737,0.0
4738,0.0
4739,0.0
4740,0.0
4741,0.0
4742,0.0
4743,0.0
4744,0.0
4745,40035124.3252747
4746,0.0
4747,40035124.3252747
4748,0.0
4749,0.0
4750,0.0
4751,0.0
4752,0.0
4753,0.0
4754,0.0
4755,0.0
4756,0.0
4757,0.0
4758,0.0
4759,0.0
4760,0.0
4761,0.0
4762,0.0
4763,0.0
4764,0.0
4765,0.0
4766,0.0
4767,0.0
4768,0.0
4769,0.0
4770,0.0
4771,0.0
4772,0.0
3526,0.0
3527,0.0
3528,0.0
3940,0.0
3941,0.0
3942,1.5
3943,0.0
3944,0.0
3945,0.0
3946,0.0
3947,0.0
3948,0.0
3970,0.0
3972,0.0
3974,0.75
3976,0.0
3978,0.0
3980,0.0
3982,0.0
3984,0.0
3986,0.0
11,465264637.15543
41,156648030.7536
1017,189143078.4
1575,17475336.
1605,17403336.
1850,72000.
3709,40035124.3252747
3992,0.0
4026,0.0
4038,0.0
2,1, 6, 1, 1, 2, 0.00,15.00,Monday         
6,18.125
4069,0.0
2,1, 6, 1, 1, 2,15.00,30.00,Monday         
6,18.15
4069,0.0
2,1, 6, 1, 1, 2,30.00,45.00,Monday         
6,18.175
4069,0.0
2,1, 6, 1, 1, 2,45.00,60.00,Monday         
6,18.2
4069,0.0
2,1, 6, 1, 1, 2, 0.00,60.00,Monday         
7,1.143565551207561E-002
8,85.875
1943,27.2766441767311
1944,23.4914695411961
1945,23.8777196461255
1946,24.775308971899
1947,24.5017790284553
1948,24.4489823688111
1949,25.019069485073
1950,24.3779473894923
1951,24.9634311341253
1952,24.3822868804158
1953,24.9773603668655
1954,24.3931688470761
1955,24.9542195749838
1956,24.3264164878728
1957,24.9076139541677
1958,24.3359906799332
1959,24.9297600759293
1960,25.2693041599801
1961,25.961156813647
1962,24.7280450267741
1963,25.7538677643619
1964,24.7427718860754
1965,25.7925851367887
1966,24.0586751306435
1967,23.4505466213016
1968,25.6870589178931
1969,24.4433527161865
1970,25.5209032394891
1971,24.335079400285
1972,25.2386217510914
1973,25.9020592310346
1974,27.0158376325665
1975,24.7191342137009
1976,25.4799270021711
1977,24.6288741951479
1978,25.4016863399678
1979,24.6473322098743
1980,25.459015062945
1981,24.6424083097654
1982,25.3935668807429
1983,24.572899790619
1984,25.3420962448493
1985,24.5995004874767
1986,25.4111134003598
1987,24.488799319168
1988,25.0892501476803
3529,0.0
3530,0.0
3531,0.0
3532,8.67921539642628
3533,8.67921539642628
3534,0.0
3535,0.0
3536,0.0
3537,0.0
3538,66.7000141885834
3539,66.7000141885834
3540,0.0
3541,0.0
3542,1687.99205087824
3543,8.929316823380769E-003
3544,14.8314947334396
3545,59.1766509411614
3546,30.7650779623213
3971,0.0
3973,0.0
3975,0.365395283661561
3977,0.0
3979,0.0
3981,0.0
3983,0.0
3985,0.0
3987,0.0
4068,0.0
4070,0.0
4093,0.0
4105,0.0
4116,66.7000141885834
4117,66.7000141885834
4129,0.0
4737,0.0
4738,0.0
4739,0.0
4740,0.0
4741,0.0
4742,0.0
4743,0.0
4744,0.0
4745,40035124.3252747
4746,0.0
4747,40035124.3252747
4748,0.0
4749,0.0
4750,0.0
4751,0.0
4752,0.0
4753,0.0
4754,0.0
4755,0.0
4756,0.0
4757,0.0
4758,0.0
4759,0.0
4760,0.0
4761,0.0
4762,0.0
4763,0.0
4764,0.0
4765,0.0
4766,0.0
4767,0.0
4768,0.0
4769,0.0
4770,0.0
4771,0.0
4772,0.0
3526,0.0
3527,0.0
3528,0.0
3940,0.0
3941,0.0
3942,1.5
3943,0.0
3944,0.0
3945,0.0
3946,0.0
3947,0.0
3948,0.0
3970,0.0
3972,0.0
3974,0.75
3976,0.0
3978,0.0
3980,0.0
3982,0.0
3984,0.0
3986,0.0
11,465460052.798443
41,156648030.7536
1017,189143078.4
1575,17475336.
1605,17403336.
1850,72000.
3709,40035124.3252747
3992,0.0
4026,0.0
4038,0.0
2,1, 6, 1, 1, 3, 0.00,15.00,Monday         
6,18.2
4069,0.0
2,1, 6, 1, 1, 3,15.00,30.00,Monday         
6,18.2
4069,0.0
2,1, 6, 1, 1, 3,30.00,45.00,Monday         
6,18.2
4069,0.0
2,1, 6, 1, 1, 3,45.00,60.00,Monday         
6,18.2
4069,0.0
2,1, 6, 1, 1, 3, 0.00,60.00,Monday         
7,1.136096029224084E-002
8,85.125
1943,27.5486930011135
1944,23.3922627705555
1945,23.865239138097
1946,24.6569113513085
1947,24.5080683930005
1948,24.4140972141037
1949,24.9187610974737
1950,24.3428289864382
1951,24.8613955994648
1952,24.3473914050052
1953,24.8753055285847
1954,24.3588037379991
1955,24.8535185336989
1956,24.291664525339
1957,24.8050079773305
1958,24.3010933380004
1959,24.8267948749269
1960,25.2281801294502
1961,25.8195613443904
1962,24.6972622941327
1963,25.6131828943582
1964,24.7120248157178
1965,25.6503441247675
1966,23.9573752011619
1967,23.3735710083836
1968,25.6224917868481
1969,24.4366891386099
1970,25.4045071167199
1971,24.312488090229
1972,25.109093138068
1973,25.8584342707629
1974,26.8843482668323
1975,24.7160455106784
1976,25.4069398783805
1977,24.6245069849924
1978,25.3269730225276
1979,24.6429558408454
1980,25.3817454969853
1981,24.6400969436702
1982,25.3181115881652
1983,24.5700657331309
1984,25.2650359397516
1985,24.5966541732015
1986,25.3280473993039
1987,24.4831436758681
1988,25.0232759406186
3529,0.0
3530,0.0
3531,0.0
3532,8.67921539642628
3533,8.67921539642628
3534,0.0
3535,0.0
3536,0.0
3537,0.0
3538,66.7000141885834
3539,66.7000141885834
3540,0.0
3541,0.0
3542,1688.94732093785
3543,8.934370110808783E-003
3544,14.8314947334251
3545,58.6366084390881
3546,50.9730698414487
3971,0.0
3973,0.0
3975,0.251905423418591
3977,0.0
3979,0.0
3981,0.0
3983,0.0
3985,0.0
3987,0.0
4068,0.0
4070,0.0
4093,0.0
4105,0.0
4116,66.7000141885834
4117,66.7000141885834
4129,0.0
4737,0.0
4738,0.0
4739,0.0
4740,0.0
4741,0.0
4742,0.0
4743,0.0
4744,0.0
4745,26690082.8835165
4746,0.0
4747,26690082.8835165
4748,0.0
4749,0.0
4750,0.0
4751,0.0
4752,0.0
4753,0.0
4754,0.0
4755,0.0
4756,0.0
4757,0.0
4758,0.0
4759,0.0
4760,0.0
4761,0.0
4762,0.0
4763,0.0
4764,0.0
4765,0.0
4766,0.0
4767,0.0
4768,0.0
4769,0.0
4770,0.0
4771,0.0
4772,0.0
3526,0.0
3527,0.0
3528,0.0
3940,0.0
3941,0.0
3942,1.
3943,0.0
3944,0.0
3945,0.0
3946,0.0
3947,0.0
3948,0.0
3970,0.0
3972,0.0
3974,0.5
3976,0.0
3978,0.0
3980,0.0
3982,0.0
3984,0.0
3986,0.0
11,452103073.179676
41,156648030.7536
1017,189143078.4
1575,17475336.
1605,17403336.
1850,72000.
3709,26690082.8835165
3992,0.0
4026,0.0
4038,0.0
2,1, 6, 1, 1, 4, 0.00,15.00,Monday         
6,18.225
4069,0.0
2,1, 6, 1, 1, 4,15.00,30.00,Monday         
6,18.25
4069,0.0
2,1, 6, 1, 1, 4,30.00,45.00,Monday         
6,18.275
4069,0.0
2,1, 6, 1, 1, 4,45.00,60.00,Monday         
6,18.3
4069,0.0
2,1, 6, 1, 1, 4, 0.00,60.00,Monday         
7,1.099015130274536E-002
8,82.125
1943,27.2877898506764
1944,23.2920609506259
1945,23.8451547649824
1946,24.5668452672949
1947,24.5016134370479
1948,24.3693278181652
1949,24.8383761636349
1950,24.297813457785
1951,24.7794742939694
1952,24.3026029087882
1953,24.7933112874669
1954,24.3163610292911
1955,24.773209529803
1956,24.2488816134895
1957,24.7229103147637
1958,24.2581237835602
1959,24.7442904555096
1960,25.180076357409
1961,25.7163907615242
1962,24.6595716825124
1963,25.5114760853567
1964,24.6741591997277
1965,25.5470989536155
1966,23.8464011871114
1967,23.2972554888802
1968,25.5825034868527
1969,24.4150678630252
1970,25.3144620620331
1971,24.2800364477745
1972,25.0147558185064
1973,25.8113743405816
1974,26.7889349873785
1975,24.6971709624764
1976,25.3550311683322
1977,24.60501058641
1978,25.2738825941954
1979,24.6234735011382
1980,25.3258997748431
1981,24.6243643387414
1982,25.265735812794
1983,24.5535874441552
1984,25.2114392486209
1985,24.5791459089311
1986,25.2708414268149
1987,24.4625478595099
1988,24.9747881806207
3529,0.0
3530,0.0
3531,0.0
3532,8.67921539642628
3533,8.67921539642628
3534,0.0
3535,0.0
3536,0.0
3537,0.0
3538,66.7000141885834
3539,66.7000141885834
3540,0.0
3541,0.0
3542,1691.8067957808
3543,8.949496459776812E-003
3544,14.8314947334122
3545,58.7076847719303
3546,48.3884834133511
3971,0.0
3973,0.0
3975,0.393785017586858
3977,0.0
3979,0.0
3981,0.0
3983,0.0
3985,0.0
3987,0.0
4068,0.0
4070,0.0
4093,0.0
4105,0.0
4116,66.7000141885834
4117,66.7000141885834
4129,0.0
4737,0.0
4738,0.0
4739,0.0
4740,0.0
4741,0.0
4742,0.0
4743,0.0
4744,0.0
4745,40035124.3252747
4746,0.0
4747,40035124.3252747
4748,0.0
4749,0.0
4750,0.0
4751,0.0
4752,0.0
4753,0.0
4754,0.0
4755,0.0
4756,0.0
4757,0.0
4758,0.0
4759,0.0
4760,0.0
4761,0.0
4762,0.0
4763,0.0
4764,0.0
4765,0.0
4766,0.0
4767,0.0
4768,0.0
4769,0.0
4770,0.0
4771,0.0
4772,0.0
3526,0.0
3527,0.0
3528,0.0
3940,0.0
3941,0.0
3942,1.5
3943,0.0
3944,0.0
3945,0.0
3946,0.0
3947,0.0
3948,0.0
3970,0.0
3972,0.0
3974,0.75
3976,0.0
3978,0.0
3980,0.0
3982,0.0
3984,0.0
3986,0.0
11,467261307.558716
41,156648030.7536
1017,189143078.4
1575,48429002.4611016
1605,17403336.
1850,31025666.4611016
3709,40035124.3252747
3992,0.0
4026,0.0
4038,0.0
2,1, 6, 1, 1, 5, 0.00,15.00,Monday         
6,18.175
4069,0.0
2,1, 6, 1, 1, 5,15.00,30.00,Monday         
6,18.05
4069,0.0
2,1, 6, 1, 1, 5,30.00,45.00,Monday         
6,17.925
4069,0.0
2,1, 6, 1, 1, 5,45.00,60.00,Monday         
6,17.8
4069,0.0
2,1, 6, 1, 1, 5, 0.00,60.00,Monday         
7,1.063775065424075E-002
8,81.
1943,27.2805580009198
1944,23.2137928460265
1945,23.8111798342779
1946,24.4920032645424
1947,24.4887431198686
1948,24.3097930305422
1949,24.7666719958593
1950,24.2373085883139
1951,24.7061291831614
1952,24.2423195040195
1953,24.7199404281403
1954,24.2586186568775
1955,24.7034116281287
1956,24.1906725260389
1957,24.6515265929502
1958,24.2016204542644
1959,24.6735983416972
1960,25.1295074376645
1961,25.642425678188
1962,24.6185901806335
1963,25.4390643267488
1964,24.6331228118818
1965,25.4733032311646
1966,23.7469648505961
1967,23.2249851435779
1968,25.5619748948114
1969,24.3838742015269
1970,25.243650025532
1971,24.240637405847
1972,24.9450830452172
1973,25.7655962958095
1974,26.721107803124
1975,24.6663525969034
1976,25.316229060129
1977,24.5732476087187
1978,25.2332777108834
1979,24.5916714404134
1980,25.2826956616347
1981,24.5956136429377
1982,25.2282347801024
1983,24.5243360613512
1984,25.1728087952879
1985,24.5513080574474
1986,25.2309169194742
1987,24.4316035117402
1988,24.9386712806563
3529,0.0
3530,0.0
3531,0.0
3532,8.67921539642628
3533,8.67921539642628
3534,0.0
3535,0.0
3536,0.0
3537,0.0
3538,66.7000141885834
3539,66.7000141885834
3540,0.0
3541,0.0
3542,1690.22722528786
3543,8.941140682643376E-003
3544,14.8314947334009
3545,59.5595152262449
3546,16.4791634120694
3971,0.0
3973,0.0
3975,0.3619734647433
3977,0.0
3979,0.0
3981,0.0
3983,0.0
3985,0.0
3987,0.0
4068,0.0
4070,0.0
4093,0.0
4105,0.0
4116,66.7000141885834
4117,66.7000141885834
4129,0.0
4737,0.0
4738,0.0
4739,0.0
4740,0.0
4741,0.0
4742,0.0
4743,0.0
4744,0.0
4745,40035124.3252748
4746,0.0
4747,40035124.3252747
4748,0.0
4749,0.0
4750,0.0
4751,0.0
4752,0.0
4753,0.0
4754,0.0
4755,0.0
4756,0.0
4757,0.0
4758,0.0
4759,0.0
4760,0.0
4761,0.0
4762,0.0
4763,0.0
4764,0.0
4765,0.0
4766,0.0
4767,0.0
4768,0.0
4769,0.0
4770,0.0
4771,0.0
4772,0.0
3526,0.0
3527,0.0
3528,0.0
3940,0.0
3941,0.0
3942,1.5
3943,0.0
3944,0.0
3945,0.0
3946,0.0
3947,0.0
3948,0.0
3970,0.0
3972,0.0
3974,0.75
3976,0.0
3978,0.0
3980,0.0
3982,0.0
3984,0.0
3986,0.0
11,418687668.752017
41,156648030.7536
1017,189143078.4
1575,17475336.
1605,17403336.
1850,72000.
3709,40035124.3252747
3992,0.0
4026,0.0
4038,0.0
2,1, 6, 1, 1, 6, 0.00,15.00,Monday         
6,17.375
4069,36536.8856521449
2,1, 6, 1, 1, 6,15.00,30.00,Monday         
6,16.95
4069,30416.9790359372
2,1, 6, 1, 1, 6,30.00,45.00,Monday         
6,16.525
4069,25334.9260611155
2,1, 6, 1, 1, 6,45.00,60.00,Monday         
6,16.1
4069,20515.7066538869
2,1, 6, 1, 1, 6, 0.00,60.00,Monday         
7,9.816632225188832E-003
8,81.
1943,23.6741549336033
1944,21.8480913960101
1945,22.4642103234789
1946,22.9559526867539
1947,21.2805786846953
1948,22.3879987631523
1949,22.2094753176432
1950,22.3420685979921
1951,22.1741488421715
1952,22.3457115242086
1953,22.1781348146359
1954,22.4446306953878
1955,22.2421590494979
1956,22.3877995524611
1957,22.2050767201041
1958,22.3821181245553
1959,22.2094514076253
1960,24.2471588504806
1961,24.2165472615865
1962,23.9849503076078
1963,24.0436717414801
1964,23.9894286735669
1965,24.0489839107061
1966,21.231615009171
1967,22.0651449370113
1968,23.4501402181338
1969,23.5221119668482
1970,23.7207192892978
1971,23.5202615836877
1972,23.4529680471572
1973,23.7934192001589
1974,25.1032810888385
1975,23.280978522161
1976,23.2108049625782
1977,23.2117824152592
1978,23.1615359384072
1979,23.2253669522334
1980,22.9584663424481
1981,23.2264129701526
1982,23.2906015113131
1983,23.176993471177
1984,23.2337921592149
1985,23.2020690902997
1986,23.0059777369385
1987,23.197908153899
1988,23.0069620010884
3529,88152.5650036617
3530,0.0
3531,10.254072733665
3532,8.74401340992829
3533,6.7
3534,0.0
3535,0.0
3536,0.0
3537,0.0
3538,66.7000141885834
3539,66.7000141885834
3540,0.0
3541,0.0
3542,1689.18167880146
3543,8.935609841530027E-003
3544,14.831494733391
3545,59.0142133177337
3546,36.8607688726125
3971,1.
3973,0.769056958209244
3975,1.
3977,0.498324834091904
3979,1.
3981,1.
3983,1.
3985,1.
3987,1.
4068,0.15
4070,101524047.662776
4093,3.13171744733613
4105,0.0
4116,66.7000141885834
4117,66.7000141885834
4129,0.0
4737,245411142.085382
4738,0.0
4739,119747600.516129
4740,0.0
4741,33382942.0847732
4742,0.0
4743,33004010.094706
4744,0.0
4745,53380165.767033
4746,37545840.2123059
4747,53380165.767033
4748,0.0
4749,2323262.02640624
4750,174549.355627424
4751,2171941.11502897
4752,0.0
4753,40867893.0383815
4754,0.0
4755,30318155.4905526
4756,0.0
4757,6891045.81635403
4758,102608220.609224
4759,6891045.816354
4760,0.0
4761,5172130.17865842
4762,68511060.8960648
4763,5172130.17865844
4764,0.0
4765,4993582.79363689
4766,66709738.6506191
4767,4993582.79363686
4768,0.0
4769,5336138.36441023
4770,71857592.4164348
4771,5336138.36441026
4772,0.0
3526,0.0
3527,0.0
3528,0.0
3940,0.0
3941,0.0
3942,0.0
3943,0.0
3944,0.0
3945,0.0
3946,0.0
3947,0.0
3948,0.0
3970,1.
3972,1.
3974,1.
3976,0.0
3978,1.
3980,1.
3982,1.
3984,1.
3986,1.
11,745207515.506213
41,156648030.7536
1017,191659478.4
1575,192782706.507364
1605,17403336.
1850,72000.
3709,261813586.711353
3992,109639510.17702
4026,175307370.507364
4038,0.0
2,1, 6, 1, 1, 7, 0.00,15.00,Monday         
6,15.975
4069,18149.4808926343
2,1, 6, 1, 1, 7,15.00,30.00,Monday         
6,15.85
4069,15352.5790645674
2,1, 6, 1, 1, 7,30.00,45.00,Monday         
6,15.725
4069,15066.0199147169
2,1, 6, 1, 1, 7,45.00,60.00,Monday         
6,15.6
4069,14726.7580507517
2,1, 6, 1, 1, 7, 0.00,60.00,Monday         
7,9.006004256625611E-003
8,79.125
1943,23.2718862093422
1944,21.5764104334448
1945,22.666398048854
1946,23.0288795397693
1947,21.0238689691503
1948,22.6485743688168
1949,22.2498754801801
1950,22.6017546853823
1951,22.2085931188287
1952,22.6050112433116
1953,22.2074410872263
1954,22.724929195447
1955,22.298581517352
1956,22.6697937051995
1957,22.2561455263569
1958,22.6652022925208
1959,22.2549863591175
1960,24.7548799687445
1961,23.9894041833968
1962,24.0457568918961
1963,23.8237483454759
1964,24.0470620986058
1965,23.8052420738592
1966,20.9999015600937
1967,21.910495479167
1968,23.8402234626579
1969,23.9533167402942
1970,23.9611054031961
1971,23.5935967705715
1972,23.258497015802
1973,23.9282848470704
1974,25.2962805757897
1975,23.8456843894803
1976,23.6113748704224
1977,23.7412741426277
1978,23.5535822009867
1979,23.7571644731947
1980,23.2683391182078
1981,23.7739501314646
1982,23.7205380986202
1983,23.7027260117652
1984,23.668677144894
1985,23.745156487851